mirai144
 Entering Gaussian System, Link 0=/home100/hase/g16e01.pgi17.1.c6/g16/g16
 Initial command:
 /home100/hase/g16e01.pgi17.1.c6/g16/l1.exe "/work/takafumi/tmp.11369/Gau-11438.inp" -scrdir="/work/takafumi/tmp.11369/"
 Entering Link 1 = /home100/hase/g16e01.pgi17.1.c6/g16/l1.exe PID=     11439.
  
 Copyright (c) 1988,1990,1992,1993,1995,1998,2003,2009,2016,
            Gaussian, Inc.  All Rights Reserved.
  
 This is part of the Gaussian(R) 16 program.  It is based on
 the Gaussian(R) 09 system (copyright 2009, Gaussian, Inc.),
 the Gaussian(R) 03 system (copyright 2003, Gaussian, Inc.),
 the Gaussian(R) 98 system (copyright 1998, Gaussian, Inc.),
 the Gaussian(R) 94 system (copyright 1995, Gaussian, Inc.),
 the Gaussian 92(TM) system (copyright 1992, Gaussian, Inc.),
 the Gaussian 90(TM) system (copyright 1990, Gaussian, Inc.),
 the Gaussian 88(TM) system (copyright 1988, Gaussian, Inc.),
 the Gaussian 86(TM) system (copyright 1986, Carnegie Mellon
 University), and the Gaussian 82(TM) system (copyright 1983,
 Carnegie Mellon University). Gaussian is a federally registered
 trademark of Gaussian, Inc.
  
 This software contains proprietary and confidential information,
 including trade secrets, belonging to Gaussian, Inc.
  
 This software is provided under written license and may be
 used, copied, transmitted, or stored only in accord with that
 written license.
  
 The following legend is applicable only to US Government
 contracts under FAR:
  
                    RESTRICTED RIGHTS LEGEND
  
 Use, reproduction and disclosure by the US Government is
 subject to restrictions as set forth in subparagraphs (a)
 and (c) of the Commercial Computer Software - Restricted
 Rights clause in FAR 52.227-19.
  
 Gaussian, Inc.
 340 Quinnipiac St., Bldg. 40, Wallingford CT 06492
  
  
 ---------------------------------------------------------------
 Warning -- This program may not be used in any manner that
 competes with the business of Gaussian, Inc. or will provide
 assistance to any competitor of Gaussian, Inc.  The licensee
 of this program is prohibited from giving any competitor of
 Gaussian, Inc. access to this program.  By using this program,
 the user acknowledges that Gaussian, Inc. is engaged in the
 business of creating and licensing software in the field of
 computational chemistry and represents and warrants to the
 licensee that it is not a competitor of Gaussian, Inc. and that
 it will not use this program in any manner prohibited above.
 ---------------------------------------------------------------
  

 Cite this work as:
 Gaussian 16, Revision A.03,
 M. J. Frisch, G. W. Trucks, H. B. Schlegel, G. E. Scuseria, 
 M. A. Robb, J. R. Cheeseman, G. Scalmani, V. Barone, 
 G. A. Petersson, H. Nakatsuji, X. Li, M. Caricato, A. V. Marenich, 
 J. Bloino, B. G. Janesko, R. Gomperts, B. Mennucci, H. P. Hratchian, 
 J. V. Ortiz, A. F. Izmaylov, J. L. Sonnenberg, D. Williams-Young, 
 F. Ding, F. Lipparini, F. Egidi, J. Goings, B. Peng, A. Petrone, 
 T. Henderson, D. Ranasinghe, V. G. Zakrzewski, J. Gao, N. Rega, 
 G. Zheng, W. Liang, M. Hada, M. Ehara, K. Toyota, R. Fukuda, 
 J. Hasegawa, M. Ishida, T. Nakajima, Y. Honda, O. Kitao, H. Nakai, 
 T. Vreven, K. Throssell, J. A. Montgomery, Jr., J. E. Peralta, 
 F. Ogliaro, M. J. Bearpark, J. J. Heyd, E. N. Brothers, K. N. Kudin, 
 V. N. Staroverov, T. A. Keith, R. Kobayashi, J. Normand, 
 K. Raghavachari, A. P. Rendell, J. C. Burant, S. S. Iyengar, 
 J. Tomasi, M. Cossi, J. M. Millam, M. Klene, C. Adamo, R. Cammi, 
 J. W. Ochterski, R. L. Martin, K. Morokuma, O. Farkas, 
 J. B. Foresman, and D. J. Fox, Gaussian, Inc., Wallingford CT, 2016.
 
 ******************************************
 Gaussian 16:  ES64L-G16RevA.03 25-Dec-2016
                 1-Feb-2022 
 ******************************************
 %nprocshared=6
 Will use up to    6 processors via shared memory.
 %mem=10GB
 ---------------
 # ccsd/def2tzvp
 ---------------
 1/38=1,172=1/1;
 2/12=2,17=6,18=5,40=1/2;
 3/5=44,7=101,11=9,25=1,30=1/1,2,3;
 4//1;
 5/5=2,38=5/2;
 8/6=4,9=120000,10=1/1,4;
 9/5=7/13;
 6/7=2,8=2,9=2,10=2/1;
 99/5=1,9=1/99;
 -
 N
 -
 Symbolic Z-matrix:
 Charge =  0 Multiplicity = 4
 N                     0.        0.        0. 
 
                          Input orientation:                          
 ---------------------------------------------------------------------
 Center     Atomic      Atomic             Coordinates (Angstroms)
 Number     Number       Type             X           Y           Z
 ---------------------------------------------------------------------
      1          7           0        0.000000    0.000000    0.000000
 ---------------------------------------------------------------------
 Stoichiometry    N(4)
 Framework group  OH[O(N)]
 Deg. of freedom     0
 Full point group                 OH      NOp  48
 Largest Abelian subgroup         D2H     NOp   8
 Largest concise Abelian subgroup C1      NOp   1
                         Standard orientation:                         
 ---------------------------------------------------------------------
 Center     Atomic      Atomic             Coordinates (Angstroms)
 Number     Number       Type             X           Y           Z
 ---------------------------------------------------------------------
      1          7           0        0.000000    0.000000    0.000000
 ---------------------------------------------------------------------
 Standard basis: def2TZVP (5D, 7F)
 There are    11 symmetry adapted cartesian basis functions of AG  symmetry.
 There are     2 symmetry adapted cartesian basis functions of B1G symmetry.
 There are     2 symmetry adapted cartesian basis functions of B2G symmetry.
 There are     2 symmetry adapted cartesian basis functions of B3G symmetry.
 There are     1 symmetry adapted cartesian basis functions of AU  symmetry.
 There are     6 symmetry adapted cartesian basis functions of B1U symmetry.
 There are     6 symmetry adapted cartesian basis functions of B2U symmetry.
 There are     6 symmetry adapted cartesian basis functions of B3U symmetry.
 There are     9 symmetry adapted basis functions of AG  symmetry.
 There are     2 symmetry adapted basis functions of B1G symmetry.
 There are     2 symmetry adapted basis functions of B2G symmetry.
 There are     2 symmetry adapted basis functions of B3G symmetry.
 There are     1 symmetry adapted basis functions of AU  symmetry.
 There are     5 symmetry adapted basis functions of B1U symmetry.
 There are     5 symmetry adapted basis functions of B2U symmetry.
 There are     5 symmetry adapted basis functions of B3U symmetry.
    31 basis functions,    51 primitive gaussians,    36 cartesian basis functions
     5 alpha electrons        2 beta electrons
       nuclear repulsion energy         0.0000000000 Hartrees.
 NAtoms=    1 NActive=    1 NUniq=    1 SFac= 1.00D+00 NAtFMM=   60 NAOKFM=F Big=F
 Integral buffers will be    131072 words long.
 Raffenetti 2 integral format.
 Two-electron integral symmetry is turned on.
 One-electron integrals computed using PRISM.
  48 Symmetry operations used in ECPInt.
 ECPInt:  NShTT=      66 NPrTT=     232 LenC2=      67 LenP2D=     232.
 LDataN:  DoStor=T MaxTD1= 6 Len=  172
 NBasis=    31 RedAO= T EigKep=  2.95D-02  NBF=     9     2     2     2     1     5     5     5
 NBsUse=    31 1.00D-06 EigRej= -1.00D+00 NBFU=     9     2     2     2     1     5     5     5
 ExpMin= 1.36D-01 ExpMax= 1.97D+04 ExpMxC= 6.73D+02 IAcc=3 IRadAn=         5 AccDes= 0.00D+00
 Harris functional with IExCor=  205 and IRadAn=       5 diagonalized for initial guess.
 HarFok:  IExCor=  205 AccDes= 0.00D+00 IRadAn=         5 IDoV= 1 UseB2=F ITyADJ=14
 ICtDFT=  3500011 ScaDFX=  1.000000  1.000000  1.000000  1.000000
 FoFCou: FMM=F IPFlag=           0 FMFlag=      100000 FMFlg1=           0
         NFxFlg=           0 DoJE=T BraDBF=F KetDBF=T FulRan=T
         wScrn=  0.000000 ICntrl=       500 IOpCl=  0 I1Cent=   200000004 NGrid=           0
         NMat0=    1 NMatS0=      1 NMatT0=    0 NMatD0=    1 NMtDS0=    0 NMtDT0=    0
 Petite list used in FoFCou.
 Initial guess orbital symmetries:
 Alpha Orbitals:
       Occupied  (A1G) (A1G) (T1U) (T1U) (T1U)
       Virtual   (A1G) (T1U) (T1U) (T1U) (T2G) (T2G) (T2G) (EG)
                 (EG) (A1G) (T1U) (T1U) (T1U) (T2U) (T2U) (T2U)
                 (A2U) (T1U) (T1U) (T1U) (T2G) (T2G) (T2G) (EG)
                 (EG) (A1G)
 Beta  Orbitals:
       Occupied  (A1G) (A1G)
       Virtual   (T1U) (T1U) (T1U) (A1G) (T1U) (T1U) (T1U) (T2G)
                 (T2G) (T2G) (EG) (EG) (A1G) (T1U) (T1U) (T1U)
                 (T2U) (T2U) (T2U) (A2U) (T1U) (T1U) (T1U) (T2G)
                 (T2G) (T2G) (EG) (EG) (A1G)
 The electronic state of the initial guess is 4-A1G.
 Initial guess <Sx>= 0.0000 <Sy>= 0.0000 <Sz>= 1.5000 <S**2>= 3.7500 S= 1.5000
 Keep R1 and R2 ints in memory in symmetry-blocked form, NReq=2077127.
 Requested convergence on RMS density matrix=1.00D-08 within 128 cycles.
 Requested convergence on MAX density matrix=1.00D-06.
 Requested convergence on             energy=1.00D-06.
 No special actions if energy rises.
 SCF Done:  E(UHF) =  -54.4027468846     A.U. after    8 cycles
            NFock=  8  Conv=0.78D-08     -V/T= 1.9999
 <Sx>= 0.0000 <Sy>= 0.0000 <Sz>= 1.5000 <S**2>= 3.7577 S= 1.5019
 <L.S>= 0.000000000000E+00
 Annihilation of the first spin contaminant:
 S**2 before annihilation     3.7577,   after     3.7500
 ExpMin= 1.36D-01 ExpMax= 1.97D+04 ExpMxC= 6.73D+02 IAcc=3 IRadAn=         5 AccDes= 0.00D+00
 HarFok:  IExCor=  205 AccDes= 0.00D+00 IRadAn=         5 IDoV=-2 UseB2=F ITyADJ=14
 ICtDFT= 12500011 ScaDFX=  1.000000  1.000000  1.000000  1.000000
 Range of M.O.s used for correlation:     2    31
 NBasis=    31 NAE=     5 NBE=     2 NFC=     1 NFV=     0
 NROrb=     30 NOA=     4 NOB=     1 NVA=    26 NVB=    29
 Semi-Direct transformation.
 ModeAB=           2 MOrb=             4 LenV=    1341931302
 LASXX=         6123 LTotXX=        6123 LenRXX=        6123
 LTotAB=        7135 MaxLAS=       79920 LenRXY=       79920
 NonZer=       90000 LenScr=      785920 LnRSAI=           0
 LnScr1=           0 LExtra=           0 Total=       871963
 MaxDsk=          -1 SrtSym=           F ITran=            4
 JobTyp=1 Pass  1:  I=   1 to   4.
 (rs|ai) integrals will be sorted in core.
 ModeAB=           2 MOrb=             1 LenV=    1341931302
 LASXX=         1695 LTotXX=        1695 LenRXX=       19980
 LTotAB=        1493 MaxLAS=       19980 LenRXY=        1493
 NonZer=       22500 LenScr=      785920 LnRSAI=           0
 LnScr1=           0 LExtra=           0 Total=       807393
 MaxDsk=          -1 SrtSym=           F ITran=            4
 JobTyp=2 Pass  1:  I=   1 to   1.
 (rs|ai) integrals will be sorted in core.
 Spin components of T(2) and E(2):
     alpha-alpha T2 =       0.6954485424D-02 E2=     -0.2889116252D-01
     alpha-beta  T2 =       0.1778176361D-01 E2=     -0.6597560419D-01
     beta-beta   T2 =       0.0000000000D+00 E2=      0.0000000000D+00
 ANorm=    0.1012292571D+01
 E2 =    -0.9486676671D-01 EUMP2 =    -0.54497613651298D+02
 (S**2,0)=  0.37577D+01           (S**2,1)=  0.37526D+01
 E(PUHF)=      -0.54403929001D+02        E(PMP2)=      -0.54498405525D+02
 Keep R2 and R3 ints in memory in symmetry-blocked form, NReq=2080313.
 CIDS: In Core Option IDoMem=           1.
 Iterations=  50 Convergence= 0.100D-06
 Produce multiple copies of IABC intergrals
 Iteration Nr.   1
 **********************
 DD1Dir will call FoFMem   1 times, MxPair=        14
 NAB=     4 NAA=     6 NBB=     0.
 E(PMP3)=      -0.54512303812D+02
 MP4(R+Q)=  0.17348795D-02
 E3=       -0.14226685D-01        EUMP3=      -0.54511840336D+02
 E4(DQ)=   -0.14186160D-02        UMP4(DQ)=   -0.54513258952D+02
 E4(SDQ)=  -0.15539332D-02        UMP4(SDQ)=  -0.54513394269D+02
 DE(Corr)= -0.10736015     E(Corr)=     -54.510107036    
 NORM(A)=   0.10171941D+01
 Iteration Nr.   2
 **********************
 DD1Dir will call FoFMem   1 times, MxPair=        14
 NAB=     4 NAA=     6 NBB=     0.
 DE(Corr)= -0.11012360     E(CORR)=     -54.512870480     Delta=-2.76D-03
 NORM(A)=   0.10182743D+01
 Iteration Nr.   3
 **********************
 DD1Dir will call FoFMem   1 times, MxPair=        14
 NAB=     4 NAA=     6 NBB=     0.
 DE(Corr)= -0.11081343     E(CORR)=     -54.513560317     Delta=-6.90D-04
 NORM(A)=   0.10185092D+01
 Iteration Nr.   4
 **********************
 DD1Dir will call FoFMem   1 times, MxPair=        14
 NAB=     4 NAA=     6 NBB=     0.
 DE(Corr)= -0.11092900     E(CORR)=     -54.513675882     Delta=-1.16D-04
 NORM(A)=   0.10185129D+01
 Iteration Nr.   5
 **********************
 DD1Dir will call FoFMem   1 times, MxPair=        14
 NAB=     4 NAA=     6 NBB=     0.
 DE(Corr)= -0.11093013     E(CORR)=     -54.513677013     Delta=-1.13D-06
 NORM(A)=   0.10185169D+01
 Iteration Nr.   6
 **********************
 DD1Dir will call FoFMem   1 times, MxPair=        14
 NAB=     4 NAA=     6 NBB=     0.
 DE(Corr)= -0.11093191     E(CORR)=     -54.513678797     Delta=-1.78D-06
 NORM(A)=   0.10185170D+01
 Iteration Nr.   7
 **********************
 DD1Dir will call FoFMem   1 times, MxPair=        14
 NAB=     4 NAA=     6 NBB=     0.
 DE(Corr)= -0.11093197     E(CORR)=     -54.513678858     Delta=-6.07D-08
 NORM(A)=   0.10185171D+01
 Wavefunction amplitudes converged. E(Corr)=     -54.513678858    
 Largest amplitude= 3.81D-02

 S**2, projected HF & approx projected MPn energies after annihilation of
 unwanted spin states (see manual for definitions):

 spins       (S**2,0) (S**2,1)    PUHF        PMP2        PMP3        PMP4
 annihilated
 s+1         3.75000  3.75000  -54.403929  -54.498406  -54.512304

 Discarding MO integrals.

 **********************************************************************

            Population analysis using the SCF density.

 **********************************************************************

 Orbital symmetries:
 Alpha Orbitals:
       Occupied  (A1G) (A1G) (T1U) (T1U) (T1U)
       Virtual   (A1G) (T1U) (T1U) (T1U) (T2G) (T2G) (T2G) (EG)
                 (EG) (A1G) (T1U) (T1U) (T1U) (?A) (A2U) (?A) (?A)
                 (?A) (?A) (?A) (EG) (EG) (T2G) (T2G) (T2G) (A1G)
 Beta  Orbitals:
       Occupied  (A1G) (A1G)
       Virtual   (T1U) (T1U) (T1U) (A1G) (T1U) (T1U) (T1U) (EG)
                 (T2G) (T2G) (T2G) (EG) (A1G) (T1U) (T1U) (T1U)
                 (?A) (A2U) (?A) (?A) (?A) (?A) (?A) (EG) (T2G)
                 (T2G) (T2G) (EG) (A1G)
 The electronic state is 4-A1G.
 Alpha  occ. eigenvalues --  -15.67057  -1.16239  -0.57060  -0.57060  -0.57060
 Alpha virt. eigenvalues --    0.34123   0.44675   0.44675   0.44675   1.19019
 Alpha virt. eigenvalues --    1.19019   1.19019   1.19019   1.19019   2.07298
 Alpha virt. eigenvalues --    2.28668   2.28668   2.28668   4.18204   4.18204
 Alpha virt. eigenvalues --    4.18204   4.18204   4.18204   4.18204   4.18204
 Alpha virt. eigenvalues --    4.75229   4.75229   4.75229   4.75229   4.75229
 Alpha virt. eigenvalues --   32.28305
  Beta  occ. eigenvalues --  -15.57963  -0.72539
  Beta virt. eigenvalues --    0.12942   0.12942   0.12942   0.39924   0.60347
  Beta virt. eigenvalues --    0.60347   0.60347   1.33503   1.33503   1.33503
  Beta virt. eigenvalues --    1.33503   1.33503   2.19683   2.45678   2.45678
  Beta virt. eigenvalues --    2.45678   4.29323   4.29323   4.29323   4.29323
  Beta virt. eigenvalues --    4.29323   4.29323   4.29323   4.93499   4.93499
  Beta virt. eigenvalues --    4.93499   4.93499   4.93499  32.34034
          Condensed to atoms (all electrons):
               1
     1  N    7.000000
          Atomic-Atomic Spin Densities.
               1
     1  N    3.000000
 Mulliken charges and spin densities:
               1          2
     1  N    0.000000   3.000000
 Sum of Mulliken charges =   0.00000   3.00000
 Mulliken charges and spin densities with hydrogens summed into heavy atoms:
               1          2
     1  N    0.000000   3.000000
 Electronic spatial extent (au):  <R**2>=             12.0493
 Charge=              0.0000 electrons
 Dipole moment (field-independent basis, Debye):
    X=              0.0000    Y=              0.0000    Z=              0.0000  Tot=              0.0000
 Quadrupole moment (field-independent basis, Debye-Ang):
   XX=             -5.4022   YY=             -5.4022   ZZ=             -5.4022
   XY=             -0.0000   XZ=             -0.0000   YZ=              0.0000
 Traceless Quadrupole moment (field-independent basis, Debye-Ang):
   XX=              0.0000   YY=              0.0000   ZZ=              0.0000
   XY=             -0.0000   XZ=             -0.0000   YZ=              0.0000
 Octapole moment (field-independent basis, Debye-Ang**2):
  XXX=              0.0000  YYY=              0.0000  ZZZ=              0.0000  XYY=              0.0000
  XXY=              0.0000  XXZ=              0.0000  XZZ=              0.0000  YZZ=              0.0000
  YYZ=              0.0000  XYZ=              0.0000
 Hexadecapole moment (field-independent basis, Debye-Ang**3):
 XXXX=             -4.7120 YYYY=             -4.7120 ZZZZ=             -4.7120 XXXY=             -0.0000
 XXXZ=              0.0000 YYYX=              0.0000 YYYZ=              0.0000 ZZZX=             -0.0000
 ZZZY=              0.0000 XXYY=             -1.5707 XXZZ=             -1.5707 YYZZ=             -1.5707
 XXYZ=              0.0000 YYXZ=              0.0000 ZZXY=              0.0000
 N-N= 0.000000000000D+00 E-N=-1.283615837556D+02  KE= 5.440586542245D+01
 Symmetry AG   KE= 4.872225646775D+01
 Symmetry B1G  KE= 2.324668353413D-61
 Symmetry B2G  KE= 2.739889283987D-61
 Symmetry B3G  KE= 2.387928515937D-61
 Symmetry AU   KE= 7.941992432692D-62
 Symmetry B1U  KE= 1.894536318234D+00
 Symmetry B2U  KE= 1.894536318234D+00
 Symmetry B3U  KE= 1.894536318234D+00
 Symmetry AG   SP=-1.015599280021D-14
 Symmetry B1G  SP=-2.422187942634D-62
 Symmetry B2G  SP=-2.709216763729D-62
 Symmetry B3G  SP=-2.710402386831D-62
 Symmetry AU   SP= 1.614189117721D-62
 Symmetry B1U  SP= 1.000000000000D+00
 Symmetry B2U  SP= 1.000000000000D+00
 Symmetry B3U  SP= 1.000000000000D+00
 1\1\GINC-MIRAI144\SP\UCCSD-FC\def2TZVP\N1(4)\TAKAFUMI\01-Feb-2022\0\\#
  ccsd/def2tzvp\\N\\0,4\N,0,0.,0.,0.\\Version=ES64L-G16RevA.03\State=4-
 A1G\HF=-54.4027469\MP2=-54.4976137\MP3=-54.5118403\MP4D=-54.5149938\MP
 4DQ=-54.513259\PUHF=-54.403929\PMP2-0=-54.4984055\PMP3-0=-54.5123038\M
 P4SDQ=-54.5133943\CCSD=-54.5136789\S2=3.757734\S2-1=3.752627\S2A=3.75\
 RMSD=7.786e-09\PG=OH [O(N1)]\\@


 I DON'T PRETEND TO UNDERSTAND THE UNIVERSE --
 IT'S A GREAT DEAL BIGGER THAN I AM.
       -- ATTR. TO WILLIAM ALLINGHAM (1828-89)
 Job cpu time:       0 days  0 hours  0 minutes  7.9 seconds.
 Elapsed time:       0 days  0 hours  0 minutes  1.4 seconds.
 File lengths (MBytes):  RWF=     13 Int=      0 D2E=      0 Chk=      1 Scr=      1
 Normal termination of Gaussian 16 at Tue Feb  1 19:56:55 2022.
