mirai146
 Entering Gaussian System, Link 0=/home100/hase/g16e01.pgi17.1.c6/g16/g16
 Initial command:
 /home100/hase/g16e01.pgi17.1.c6/g16/l1.exe "/work/takafumi/tmp.10224/Gau-10291.inp" -scrdir="/work/takafumi/tmp.10224/"
 Entering Link 1 = /home100/hase/g16e01.pgi17.1.c6/g16/l1.exe PID=     10292.
  
 Copyright (c) 1988,1990,1992,1993,1995,1998,2003,2009,2016,
            Gaussian, Inc.  All Rights Reserved.
  
 This is part of the Gaussian(R) 16 program.  It is based on
 the Gaussian(R) 09 system (copyright 2009, Gaussian, Inc.),
 the Gaussian(R) 03 system (copyright 2003, Gaussian, Inc.),
 the Gaussian(R) 98 system (copyright 1998, Gaussian, Inc.),
 the Gaussian(R) 94 system (copyright 1995, Gaussian, Inc.),
 the Gaussian 92(TM) system (copyright 1992, Gaussian, Inc.),
 the Gaussian 90(TM) system (copyright 1990, Gaussian, Inc.),
 the Gaussian 88(TM) system (copyright 1988, Gaussian, Inc.),
 the Gaussian 86(TM) system (copyright 1986, Carnegie Mellon
 University), and the Gaussian 82(TM) system (copyright 1983,
 Carnegie Mellon University). Gaussian is a federally registered
 trademark of Gaussian, Inc.
  
 This software contains proprietary and confidential information,
 including trade secrets, belonging to Gaussian, Inc.
  
 This software is provided under written license and may be
 used, copied, transmitted, or stored only in accord with that
 written license.
  
 The following legend is applicable only to US Government
 contracts under FAR:
  
                    RESTRICTED RIGHTS LEGEND
  
 Use, reproduction and disclosure by the US Government is
 subject to restrictions as set forth in subparagraphs (a)
 and (c) of the Commercial Computer Software - Restricted
 Rights clause in FAR 52.227-19.
  
 Gaussian, Inc.
 340 Quinnipiac St., Bldg. 40, Wallingford CT 06492
  
  
 ---------------------------------------------------------------
 Warning -- This program may not be used in any manner that
 competes with the business of Gaussian, Inc. or will provide
 assistance to any competitor of Gaussian, Inc.  The licensee
 of this program is prohibited from giving any competitor of
 Gaussian, Inc. access to this program.  By using this program,
 the user acknowledges that Gaussian, Inc. is engaged in the
 business of creating and licensing software in the field of
 computational chemistry and represents and warrants to the
 licensee that it is not a competitor of Gaussian, Inc. and that
 it will not use this program in any manner prohibited above.
 ---------------------------------------------------------------
  

 Cite this work as:
 Gaussian 16, Revision A.03,
 M. J. Frisch, G. W. Trucks, H. B. Schlegel, G. E. Scuseria, 
 M. A. Robb, J. R. Cheeseman, G. Scalmani, V. Barone, 
 G. A. Petersson, H. Nakatsuji, X. Li, M. Caricato, A. V. Marenich, 
 J. Bloino, B. G. Janesko, R. Gomperts, B. Mennucci, H. P. Hratchian, 
 J. V. Ortiz, A. F. Izmaylov, J. L. Sonnenberg, D. Williams-Young, 
 F. Ding, F. Lipparini, F. Egidi, J. Goings, B. Peng, A. Petrone, 
 T. Henderson, D. Ranasinghe, V. G. Zakrzewski, J. Gao, N. Rega, 
 G. Zheng, W. Liang, M. Hada, M. Ehara, K. Toyota, R. Fukuda, 
 J. Hasegawa, M. Ishida, T. Nakajima, Y. Honda, O. Kitao, H. Nakai, 
 T. Vreven, K. Throssell, J. A. Montgomery, Jr., J. E. Peralta, 
 F. Ogliaro, M. J. Bearpark, J. J. Heyd, E. N. Brothers, K. N. Kudin, 
 V. N. Staroverov, T. A. Keith, R. Kobayashi, J. Normand, 
 K. Raghavachari, A. P. Rendell, J. C. Burant, S. S. Iyengar, 
 J. Tomasi, M. Cossi, J. M. Millam, M. Klene, C. Adamo, R. Cammi, 
 J. W. Ochterski, R. L. Martin, K. Morokuma, O. Farkas, 
 J. B. Foresman, and D. J. Fox, Gaussian, Inc., Wallingford CT, 2016.
 
 ******************************************
 Gaussian 16:  ES64L-G16RevA.03 25-Dec-2016
                 1-Feb-2022 
 ******************************************
 %nprocshared=6
 Will use up to    6 processors via shared memory.
 %mem=10GB
 ---------------
 # ccsd/def2tzvp
 ---------------
 1/38=1,172=1/1;
 2/12=2,17=6,18=5,40=1/2;
 3/5=44,7=101,11=9,25=1,30=1/1,2,3;
 4//1;
 5/5=2,38=5/2;
 8/6=4,9=120000,10=1/1,4;
 9/5=7/13;
 6/7=2,8=2,9=2,10=2/1;
 99/5=1,9=1/99;
 -
 B
 -
 Symbolic Z-matrix:
 Charge =  0 Multiplicity = 2
 B                     0.        0.        0. 
 
                          Input orientation:                          
 ---------------------------------------------------------------------
 Center     Atomic      Atomic             Coordinates (Angstroms)
 Number     Number       Type             X           Y           Z
 ---------------------------------------------------------------------
      1          5           0        0.000000    0.000000    0.000000
 ---------------------------------------------------------------------
 Stoichiometry    B(2)
 Framework group  OH[O(B)]
 Deg. of freedom     0
 Full point group                 OH      NOp  48
 Largest Abelian subgroup         D2H     NOp   8
 Largest concise Abelian subgroup C1      NOp   1
                         Standard orientation:                         
 ---------------------------------------------------------------------
 Center     Atomic      Atomic             Coordinates (Angstroms)
 Number     Number       Type             X           Y           Z
 ---------------------------------------------------------------------
      1          5           0        0.000000    0.000000    0.000000
 ---------------------------------------------------------------------
 Standard basis: def2TZVP (5D, 7F)
 There are    11 symmetry adapted cartesian basis functions of AG  symmetry.
 There are     2 symmetry adapted cartesian basis functions of B1G symmetry.
 There are     2 symmetry adapted cartesian basis functions of B2G symmetry.
 There are     2 symmetry adapted cartesian basis functions of B3G symmetry.
 There are     1 symmetry adapted cartesian basis functions of AU  symmetry.
 There are     6 symmetry adapted cartesian basis functions of B1U symmetry.
 There are     6 symmetry adapted cartesian basis functions of B2U symmetry.
 There are     6 symmetry adapted cartesian basis functions of B3U symmetry.
 There are     9 symmetry adapted basis functions of AG  symmetry.
 There are     2 symmetry adapted basis functions of B1G symmetry.
 There are     2 symmetry adapted basis functions of B2G symmetry.
 There are     2 symmetry adapted basis functions of B3G symmetry.
 There are     1 symmetry adapted basis functions of AU  symmetry.
 There are     5 symmetry adapted basis functions of B1U symmetry.
 There are     5 symmetry adapted basis functions of B2U symmetry.
 There are     5 symmetry adapted basis functions of B3U symmetry.
    31 basis functions,    51 primitive gaussians,    36 cartesian basis functions
     3 alpha electrons        2 beta electrons
       nuclear repulsion energy         0.0000000000 Hartrees.
 NAtoms=    1 NActive=    1 NUniq=    1 SFac= 1.00D+00 NAtFMM=   60 NAOKFM=F Big=F
 Integral buffers will be    131072 words long.
 Raffenetti 2 integral format.
 Two-electron integral symmetry is turned on.
 One-electron integrals computed using PRISM.
  48 Symmetry operations used in ECPInt.
 ECPInt:  NShTT=      66 NPrTT=     232 LenC2=      67 LenP2D=     232.
 LDataN:  DoStor=T MaxTD1= 6 Len=  172
 NBasis=    31 RedAO= T EigKep=  2.76D-02  NBF=     9     2     2     2     1     5     5     5
 NBsUse=    31 1.00D-06 EigRej= -1.00D+00 NBFU=     9     2     2     2     1     5     5     5
 ExpMin= 6.06D-02 ExpMax= 8.56D+03 ExpMxC= 2.92D+02 IAcc=3 IRadAn=         5 AccDes= 0.00D+00
 Harris functional with IExCor=  205 and IRadAn=       5 diagonalized for initial guess.
 HarFok:  IExCor=  205 AccDes= 0.00D+00 IRadAn=         5 IDoV= 1 UseB2=F ITyADJ=14
 ICtDFT=  3500011 ScaDFX=  1.000000  1.000000  1.000000  1.000000
 FoFCou: FMM=F IPFlag=           0 FMFlag=      100000 FMFlg1=           0
         NFxFlg=           0 DoJE=T BraDBF=F KetDBF=T FulRan=T
         wScrn=  0.000000 ICntrl=       500 IOpCl=  0 I1Cent=   200000004 NGrid=           0
         NMat0=    1 NMatS0=      1 NMatT0=    0 NMatD0=    1 NMtDS0=    0 NMtDT0=    0
 Petite list used in FoFCou.
 Initial guess orbital symmetries:
 Alpha Orbitals:
       Occupied  (A1G) (A1G) (T1U)
       Virtual   (T1U) (T1U) (A1G) (T1U) (T1U) (T1U) (T2G) (T2G)
                 (T2G) (EG) (EG) (A1G) (T1U) (T1U) (T1U) (T2U)
                 (T2U) (T2U) (A2U) (T1U) (T1U) (T1U) (T2G) (T2G)
                 (T2G) (EG) (EG) (A1G)
 Beta  Orbitals:
       Occupied  (A1G) (A1G)
       Virtual   (T1U) (T1U) (T1U) (A1G) (T1U) (T1U) (T1U) (T2G)
                 (T2G) (T2G) (EG) (EG) (A1G) (T1U) (T1U) (T1U)
                 (T2U) (T2U) (T2U) (A2U) (T1U) (T1U) (T1U) (T2G)
                 (T2G) (T2G) (EG) (EG) (A1G)
 Initial guess <Sx>= 0.0000 <Sy>= 0.0000 <Sz>= 0.5000 <S**2>= 0.7500 S= 0.5000
 Keep R1 and R2 ints in memory in symmetry-blocked form, NReq=2077127.
 Requested convergence on RMS density matrix=1.00D-08 within 128 cycles.
 Requested convergence on MAX density matrix=1.00D-06.
 Requested convergence on             energy=1.00D-06.
 No special actions if energy rises.
 Density matrix breaks symmetry, PCut= 1.00D-07
 Density has only Abelian symmetry.
 Density matrix breaks symmetry, PCut= 1.00D-07
 Density has only Abelian symmetry.
 Density matrix breaks symmetry, PCut= 1.00D-07
 Density has only Abelian symmetry.
 Density matrix breaks symmetry, PCut= 1.00D-07
 Density has only Abelian symmetry.
 Density matrix breaks symmetry, PCut= 1.00D-07
 Density has only Abelian symmetry.
 Density matrix breaks symmetry, PCut= 1.00D-07
 Density has only Abelian symmetry.
 Density matrix breaks symmetry, PCut= 1.00D-07
 Density has only Abelian symmetry.
 Density matrix breaks symmetry, PCut= 1.00D-07
 Density has only Abelian symmetry.
 Density matrix breaks symmetry, PCut= 1.00D-07
 Density has only Abelian symmetry.
 Density matrix breaks symmetry, PCut= 1.00D-07
 Density has only Abelian symmetry.
 Density matrix breaks symmetry, PCut= 1.00D-07
 Density has only Abelian symmetry.
 SCF Done:  E(UHF) =  -24.5323327659     A.U. after   10 cycles
            NFock= 10  Conv=0.19D-08     -V/T= 2.0000
 <Sx>= 0.0000 <Sy>= 0.0000 <Sz>= 0.5000 <S**2>= 0.7607 S= 0.5053
 <L.S>= 0.000000000000E+00
 Annihilation of the first spin contaminant:
 S**2 before annihilation     0.7607,   after     0.7500
 ExpMin= 6.06D-02 ExpMax= 8.56D+03 ExpMxC= 2.92D+02 IAcc=3 IRadAn=         5 AccDes= 0.00D+00
 HarFok:  IExCor=  205 AccDes= 0.00D+00 IRadAn=         5 IDoV=-2 UseB2=F ITyADJ=14
 ICtDFT= 12500011 ScaDFX=  1.000000  1.000000  1.000000  1.000000
 Range of M.O.s used for correlation:     2    31
 NBasis=    31 NAE=     3 NBE=     2 NFC=     1 NFV=     0
 NROrb=     30 NOA=     2 NOB=     1 NVA=    28 NVB=    29
 Semi-Direct transformation.
 ModeAB=           2 MOrb=             2 LenV=    1341931196
 LASXX=         3236 LTotXX=        3236 LenRXX=        3236
 LTotAB=        3759 MaxLAS=       39960 LenRXY=       39960
 NonZer=       45000 LenScr=      785920 LnRSAI=           0
 LnScr1=           0 LExtra=           0 Total=       829116
 MaxDsk=          -1 SrtSym=           F ITran=            4
 JobTyp=1 Pass  1:  I=   1 to   2.
 (rs|ai) integrals will be sorted in core.
 ModeAB=           2 MOrb=             1 LenV=    1341931196
 LASXX=         1695 LTotXX=        1695 LenRXX=        1695
 LTotAB=        1725 MaxLAS=       19980 LenRXY=       19980
 NonZer=       22500 LenScr=      785920 LnRSAI=           0
 LnScr1=           0 LExtra=           0 Total=       807595
 MaxDsk=          -1 SrtSym=           F ITran=            4
 JobTyp=2 Pass  1:  I=   1 to   1.
 (rs|ai) integrals will be sorted in core.
 Spin components of T(2) and E(2):
     alpha-alpha T2 =       0.1608006971D-02 E2=     -0.3127490277D-02
     alpha-beta  T2 =       0.2438396450D-01 E2=     -0.4037521626D-01
     beta-beta   T2 =       0.0000000000D+00 E2=      0.0000000000D+00
 ANorm=    0.1012912618D+01
 E2 =    -0.4350270653D-01 EUMP2 =    -0.24575835472402D+02
 (S**2,0)=  0.76071D+00           (S**2,1)=  0.75187D+00
 E(PUHF)=      -0.24534811407D+02        E(PMP2)=      -0.24577291060D+02
 Keep R2 and R3 ints in memory in symmetry-blocked form, NReq=2080217.
 CIDS: In Core Option IDoMem=           1.
 Iterations=  50 Convergence= 0.100D-06
 Produce multiple copies of IABC intergrals
 Iteration Nr.   1
 **********************
 DD1Dir will call FoFMem   1 times, MxPair=         6
 NAB=     2 NAA=     1 NBB=     0.
 E(PMP3)=      -0.24589477115D+02
 MP4(R+Q)=  0.11307211D-02
 E3=       -0.12916384D-01        EUMP3=      -0.24588751857D+02
 E4(DQ)=   -0.44008151D-02        UMP4(DQ)=   -0.24593152672D+02
 E4(SDQ)=  -0.46356974D-02        UMP4(SDQ)=  -0.24593387554D+02
 DE(Corr)= -0.55285287E-01 E(Corr)=     -24.587618053    
 NORM(A)=   0.10277517D+01
 Iteration Nr.   2
 **********************
 DD1Dir will call FoFMem   1 times, MxPair=         6
 NAB=     2 NAA=     1 NBB=     0.
 DE(Corr)= -0.61500071E-01 E(CORR)=     -24.593832837     Delta=-6.21D-03
 NORM(A)=   0.10347598D+01
 Iteration Nr.   3
 **********************
 DD1Dir will call FoFMem   1 times, MxPair=         6
 NAB=     2 NAA=     1 NBB=     0.
 DE(Corr)= -0.63885259E-01 E(CORR)=     -24.596218025     Delta=-2.39D-03
 NORM(A)=   0.10361109D+01
 Iteration Nr.   4
 **********************
 DD1Dir will call FoFMem   1 times, MxPair=         6
 NAB=     2 NAA=     1 NBB=     0.
 DE(Corr)= -0.64260031E-01 E(CORR)=     -24.596592796     Delta=-3.75D-04
 NORM(A)=   0.10361161D+01
 Iteration Nr.   5
 **********************
 DD1Dir will call FoFMem   1 times, MxPair=         6
 NAB=     2 NAA=     1 NBB=     0.
 DE(Corr)= -0.64255235E-01 E(CORR)=     -24.596588001     Delta= 4.80D-06
 NORM(A)=   0.10361390D+01
 Iteration Nr.   6
 **********************
 DD1Dir will call FoFMem   1 times, MxPair=         6
 NAB=     2 NAA=     1 NBB=     0.
 DE(Corr)= -0.64260618E-01 E(CORR)=     -24.596593384     Delta=-5.38D-06
 NORM(A)=   0.10361342D+01
 Iteration Nr.   7
 **********************
 DD1Dir will call FoFMem   1 times, MxPair=         6
 NAB=     2 NAA=     1 NBB=     0.
 DE(Corr)= -0.64259220E-01 E(CORR)=     -24.596591986     Delta= 1.40D-06
 NORM(A)=   0.10361359D+01
 Iteration Nr.   8
 **********************
 DD1Dir will call FoFMem   1 times, MxPair=         6
 NAB=     2 NAA=     1 NBB=     0.
 DE(Corr)= -0.64259665E-01 E(CORR)=     -24.596592431     Delta=-4.46D-07
 NORM(A)=   0.10361358D+01
 Iteration Nr.   9
 **********************
 DD1Dir will call FoFMem   1 times, MxPair=         6
 NAB=     2 NAA=     1 NBB=     0.
 DE(Corr)= -0.64259648E-01 E(CORR)=     -24.596592414     Delta= 1.76D-08
 NORM(A)=   0.10361357D+01
 Wavefunction amplitudes converged. E(Corr)=     -24.596592414    
 Dominant configurations:
 ***********************
 Spin Case        I    J    A    B          Value
   ABAB           2    2    5    3      -0.107320D+00
   ABAB           2    2    4    4      -0.107320D+00
 Largest amplitude= 1.07D-01

 S**2, projected HF & approx projected MPn energies after annihilation of
 unwanted spin states (see manual for definitions):

 spins       (S**2,0) (S**2,1)    PUHF        PMP2        PMP3        PMP4
 annihilated
 s+1         0.75000  0.75000  -24.534811  -24.577291  -24.589477

 Discarding MO integrals.
 SCF density gives NOpUse=  8 NOpAll= 48.

 **********************************************************************

            Population analysis using the SCF density.

 **********************************************************************

 Orbital symmetries:
 Alpha Orbitals:
       Occupied  (A1G) (?A) (?B)
       Virtual   (?B) (?B) (?A) (?B) (?B) (?B) (?A) (?C) (?C) (?A)
                 (?C) (?A) (?B) (?B) (?B) (?D) (?D) (?D) (A2U)
                 (?D) (?D) (?D) (?A) (?C) (?C) (?C) (?A) (A1G)
 Beta  Orbitals:
       Occupied  (A1G) (?A)
       Virtual   (?B) (?B) (?B) (?A) (?B) (?B) (?B) (?A) (T2G)
                 (T2G) (T2G) (?A) (?A) (?B) (?B) (?B) (?B) (?B)
                 (?B) (A2U) (?B) (?B) (?B) (?A) (T2G) (T2G) (T2G)
                 (?A) (A1G)
 Unable to determine electronic state:  an orbital has unidentified symmetry.
 Alpha  occ. eigenvalues --   -7.70105  -0.54497  -0.31861
 Alpha virt. eigenvalues --    0.04186   0.04186   0.15614   0.21923   0.26874
 Alpha virt. eigenvalues --    0.26874   0.53525   0.53862   0.53862   0.55318
 Alpha virt. eigenvalues --    0.55318   0.90553   1.08762   1.12490   1.12490
 Alpha virt. eigenvalues --    1.91543   1.91543   1.92287   1.92287   1.92715
 Alpha virt. eigenvalues --    1.92715   1.92855   2.02956   2.03154   2.03154
 Alpha virt. eigenvalues --    2.03837   2.03837  14.06317
  Beta  occ. eigenvalues --   -7.68564  -0.44590
  Beta virt. eigenvalues --    0.05153   0.05153   0.08923   0.16808   0.27851
  Beta virt. eigenvalues --    0.27851   0.31732   0.55529   0.55529   0.58455
  Beta virt. eigenvalues --    0.58455   0.59515   0.93240   1.13512   1.13512
  Beta virt. eigenvalues --    1.17838   1.91694   1.91694   1.94787   1.94787
  Beta virt. eigenvalues --    1.96700   1.96700   1.97350   2.04474   2.04474
  Beta virt. eigenvalues --    2.08645   2.08645   2.10165  14.07500
          Condensed to atoms (all electrons):
               1
     1  B    5.000000
          Atomic-Atomic Spin Densities.
               1
     1  B    1.000000
 Mulliken charges and spin densities:
               1          2
     1  B   -0.000000   1.000000
 Sum of Mulliken charges =  -0.00000   1.00000
 Mulliken charges and spin densities with hydrogens summed into heavy atoms:
               1          2
     1  B   -0.000000   1.000000
 Electronic spatial extent (au):  <R**2>=             15.7558
 Charge=             -0.0000 electrons
 Dipole moment (field-independent basis, Debye):
    X=              0.0000    Y=              0.0000    Z=              0.0000  Tot=              0.0000
 Quadrupole moment (field-independent basis, Debye-Ang):
   XX=             -5.9640   YY=             -5.9640   ZZ=             -9.2640
   XY=              0.0000   XZ=             -0.0000   YZ=              0.0000
 Traceless Quadrupole moment (field-independent basis, Debye-Ang):
   XX=              1.1000   YY=              1.1000   ZZ=             -2.1999
   XY=              0.0000   XZ=             -0.0000   YZ=              0.0000
 Octapole moment (field-independent basis, Debye-Ang**2):
  XXX=              0.0000  YYY=              0.0000  ZZZ=              0.0000  XYY=              0.0000
  XXY=              0.0000  XXZ=              0.0000  XZZ=              0.0000  YZZ=              0.0000
  YYZ=              0.0000  XYZ=              0.0000
 Hexadecapole moment (field-independent basis, Debye-Ang**3):
 XXXX=             -9.0268 YYYY=             -9.0268 ZZZZ=            -19.2902 XXXY=              0.0000
 XXXZ=             -0.0000 YYYX=              0.0000 YYYZ=              0.0000 ZZZX=             -0.0000
 ZZZY=              0.0000 XXYY=             -3.0089 XXZZ=             -4.7116 YYZZ=             -4.7116
 XXYZ=              0.0000 YYXZ=             -0.0000 ZZXY=              0.0000
 N-N= 0.000000000000D+00 E-N=-5.690155235305D+01  KE= 2.453305860542D+01
 Symmetry AG   KE= 2.377718751564D+01
 Symmetry B1G  KE=-8.556008934615D-53
 Symmetry B2G  KE= 2.688477226815D-35
 Symmetry B3G  KE= 2.688477226815D-35
 Symmetry AU   KE=-3.295422473606D-65
 Symmetry B1U  KE= 7.558710897768D-01
 Symmetry B2U  KE= 1.417159706333D-33
 Symmetry B3U  KE= 1.417159706333D-33
 Symmetry AG   SP=-7.133074512999D-15
 Symmetry B1G  SP=-1.228429136342D-52
 Symmetry B2G  SP= 4.977670563707D-36
 Symmetry B3G  SP= 4.977670563707D-36
 Symmetry AU   SP= 0.000000000000D+00
 Symmetry B1U  SP= 1.000000000000D+00
 Symmetry B2U  SP= 1.874757950404D-33
 Symmetry B3U  SP= 1.874757950404D-33
 1\1\GINC-MIRAI146\SP\UCCSD-FC\def2TZVP\B1(2)\TAKAFUMI\01-Feb-2022\0\\#
  ccsd/def2tzvp\\B\\0,2\B,0,0.,0.,0.\\Version=ES64L-G16RevA.03\HF=-24.5
 323328\MP2=-24.5758355\MP3=-24.5887519\MP4D=-24.5942834\MP4DQ=-24.5931
 527\PUHF=-24.5348114\PMP2-0=-24.5772911\PMP3-0=-24.5894771\MP4SDQ=-24.
 5933876\CCSD=-24.5965924\S2=0.760708\S2-1=0.751869\S2A=0.75\RMSD=1.936
 e-09\PG=OH [O(B1)]\\@


 HE THAT FOLLOWS NATURE IS NEVER LOST.

                             -- BACON
 Job cpu time:       0 days  0 hours  0 minutes  7.7 seconds.
 Elapsed time:       0 days  0 hours  0 minutes  1.4 seconds.
 File lengths (MBytes):  RWF=     13 Int=      0 D2E=      0 Chk=      1 Scr=      1
 Normal termination of Gaussian 16 at Tue Feb  1 20:45:10 2022.
