mirai148
 Entering Gaussian System, Link 0=/home100/hase/g16e01.pgi17.1.c6/g16/g16
 Initial command:
 /home100/hase/g16e01.pgi17.1.c6/g16/l1.exe "/work/takafumi/tmp.8458/Gau-8525.inp" -scrdir="/work/takafumi/tmp.8458/"
 Entering Link 1 = /home100/hase/g16e01.pgi17.1.c6/g16/l1.exe PID=      8526.
  
 Copyright (c) 1988,1990,1992,1993,1995,1998,2003,2009,2016,
            Gaussian, Inc.  All Rights Reserved.
  
 This is part of the Gaussian(R) 16 program.  It is based on
 the Gaussian(R) 09 system (copyright 2009, Gaussian, Inc.),
 the Gaussian(R) 03 system (copyright 2003, Gaussian, Inc.),
 the Gaussian(R) 98 system (copyright 1998, Gaussian, Inc.),
 the Gaussian(R) 94 system (copyright 1995, Gaussian, Inc.),
 the Gaussian 92(TM) system (copyright 1992, Gaussian, Inc.),
 the Gaussian 90(TM) system (copyright 1990, Gaussian, Inc.),
 the Gaussian 88(TM) system (copyright 1988, Gaussian, Inc.),
 the Gaussian 86(TM) system (copyright 1986, Carnegie Mellon
 University), and the Gaussian 82(TM) system (copyright 1983,
 Carnegie Mellon University). Gaussian is a federally registered
 trademark of Gaussian, Inc.
  
 This software contains proprietary and confidential information,
 including trade secrets, belonging to Gaussian, Inc.
  
 This software is provided under written license and may be
 used, copied, transmitted, or stored only in accord with that
 written license.
  
 The following legend is applicable only to US Government
 contracts under FAR:
  
                    RESTRICTED RIGHTS LEGEND
  
 Use, reproduction and disclosure by the US Government is
 subject to restrictions as set forth in subparagraphs (a)
 and (c) of the Commercial Computer Software - Restricted
 Rights clause in FAR 52.227-19.
  
 Gaussian, Inc.
 340 Quinnipiac St., Bldg. 40, Wallingford CT 06492
  
  
 ---------------------------------------------------------------
 Warning -- This program may not be used in any manner that
 competes with the business of Gaussian, Inc. or will provide
 assistance to any competitor of Gaussian, Inc.  The licensee
 of this program is prohibited from giving any competitor of
 Gaussian, Inc. access to this program.  By using this program,
 the user acknowledges that Gaussian, Inc. is engaged in the
 business of creating and licensing software in the field of
 computational chemistry and represents and warrants to the
 licensee that it is not a competitor of Gaussian, Inc. and that
 it will not use this program in any manner prohibited above.
 ---------------------------------------------------------------
  

 Cite this work as:
 Gaussian 16, Revision A.03,
 M. J. Frisch, G. W. Trucks, H. B. Schlegel, G. E. Scuseria, 
 M. A. Robb, J. R. Cheeseman, G. Scalmani, V. Barone, 
 G. A. Petersson, H. Nakatsuji, X. Li, M. Caricato, A. V. Marenich, 
 J. Bloino, B. G. Janesko, R. Gomperts, B. Mennucci, H. P. Hratchian, 
 J. V. Ortiz, A. F. Izmaylov, J. L. Sonnenberg, D. Williams-Young, 
 F. Ding, F. Lipparini, F. Egidi, J. Goings, B. Peng, A. Petrone, 
 T. Henderson, D. Ranasinghe, V. G. Zakrzewski, J. Gao, N. Rega, 
 G. Zheng, W. Liang, M. Hada, M. Ehara, K. Toyota, R. Fukuda, 
 J. Hasegawa, M. Ishida, T. Nakajima, Y. Honda, O. Kitao, H. Nakai, 
 T. Vreven, K. Throssell, J. A. Montgomery, Jr., J. E. Peralta, 
 F. Ogliaro, M. J. Bearpark, J. J. Heyd, E. N. Brothers, K. N. Kudin, 
 V. N. Staroverov, T. A. Keith, R. Kobayashi, J. Normand, 
 K. Raghavachari, A. P. Rendell, J. C. Burant, S. S. Iyengar, 
 J. Tomasi, M. Cossi, J. M. Millam, M. Klene, C. Adamo, R. Cammi, 
 J. W. Ochterski, R. L. Martin, K. Morokuma, O. Farkas, 
 J. B. Foresman, and D. J. Fox, Gaussian, Inc., Wallingford CT, 2016.
 
 ******************************************
 Gaussian 16:  ES64L-G16RevA.03 25-Dec-2016
                 1-Feb-2022 
 ******************************************
 %nprocshared=6
 Will use up to    6 processors via shared memory.
 %mem=10GB
 ------------------------
 # hf/def2tzvp stable=opt
 ------------------------
 1/38=1,172=1/1;
 2/12=2,17=6,18=5,40=1/2;
 3/5=44,7=101,11=2,25=1,30=1/1,2,3;
 4//1;
 5/5=2,38=5/2;
 6/7=2,8=2,9=2,10=2,28=1/1;
 8/6=1,10=90,11=11/1;
 9/8=-3,42=1,46=1/14;
 5/5=2,8=3,17=40,38=5/8(-2);
 6/7=2,8=2,9=2,10=2,28=1/1;
 99/5=1,9=1/99;
 -
 C
 -
 Symbolic Z-matrix:
 Charge =  0 Multiplicity = 3
 C                     0.        0.        0. 
 
                          Input orientation:                          
 ---------------------------------------------------------------------
 Center     Atomic      Atomic             Coordinates (Angstroms)
 Number     Number       Type             X           Y           Z
 ---------------------------------------------------------------------
      1          6           0        0.000000    0.000000    0.000000
 ---------------------------------------------------------------------
 Stoichiometry    C(3)
 Framework group  OH[O(C)]
 Deg. of freedom     0
 Full point group                 OH      NOp  48
 Largest Abelian subgroup         D2H     NOp   8
 Largest concise Abelian subgroup C1      NOp   1
                         Standard orientation:                         
 ---------------------------------------------------------------------
 Center     Atomic      Atomic             Coordinates (Angstroms)
 Number     Number       Type             X           Y           Z
 ---------------------------------------------------------------------
      1          6           0        0.000000    0.000000    0.000000
 ---------------------------------------------------------------------
 Standard basis: def2TZVP (5D, 7F)
 There are    11 symmetry adapted cartesian basis functions of AG  symmetry.
 There are     2 symmetry adapted cartesian basis functions of B1G symmetry.
 There are     2 symmetry adapted cartesian basis functions of B2G symmetry.
 There are     2 symmetry adapted cartesian basis functions of B3G symmetry.
 There are     1 symmetry adapted cartesian basis functions of AU  symmetry.
 There are     6 symmetry adapted cartesian basis functions of B1U symmetry.
 There are     6 symmetry adapted cartesian basis functions of B2U symmetry.
 There are     6 symmetry adapted cartesian basis functions of B3U symmetry.
 There are     9 symmetry adapted basis functions of AG  symmetry.
 There are     2 symmetry adapted basis functions of B1G symmetry.
 There are     2 symmetry adapted basis functions of B2G symmetry.
 There are     2 symmetry adapted basis functions of B3G symmetry.
 There are     1 symmetry adapted basis functions of AU  symmetry.
 There are     5 symmetry adapted basis functions of B1U symmetry.
 There are     5 symmetry adapted basis functions of B2U symmetry.
 There are     5 symmetry adapted basis functions of B3U symmetry.
    31 basis functions,    51 primitive gaussians,    36 cartesian basis functions
     4 alpha electrons        2 beta electrons
       nuclear repulsion energy         0.0000000000 Hartrees.
 NAtoms=    1 NActive=    1 NUniq=    1 SFac= 1.00D+00 NAtFMM=   60 NAOKFM=F Big=F
 Integral buffers will be    131072 words long.
 Raffenetti 2 integral format.
 Two-electron integral symmetry is turned on.
 One-electron integrals computed using PRISM.
  48 Symmetry operations used in ECPInt.
 ECPInt:  NShTT=      66 NPrTT=     232 LenC2=      67 LenP2D=     232.
 LDataN:  DoStor=T MaxTD1= 6 Len=  172
 NBasis=    31 RedAO= T EigKep=  2.86D-02  NBF=     9     2     2     2     1     5     5     5
 NBsUse=    31 1.00D-06 EigRej= -1.00D+00 NBFU=     9     2     2     2     1     5     5     5
 ExpMin= 9.52D-02 ExpMax= 1.36D+04 ExpMxC= 4.63D+02 IAcc=3 IRadAn=         5 AccDes= 0.00D+00
 Harris functional with IExCor=  205 and IRadAn=       5 diagonalized for initial guess.
 HarFok:  IExCor=  205 AccDes= 0.00D+00 IRadAn=         5 IDoV= 1 UseB2=F ITyADJ=14
 ICtDFT=  3500011 ScaDFX=  1.000000  1.000000  1.000000  1.000000
 FoFCou: FMM=F IPFlag=           0 FMFlag=      100000 FMFlg1=           0
         NFxFlg=           0 DoJE=T BraDBF=F KetDBF=T FulRan=T
         wScrn=  0.000000 ICntrl=       500 IOpCl=  0 I1Cent=   200000004 NGrid=           0
         NMat0=    1 NMatS0=      1 NMatT0=    0 NMatD0=    1 NMtDS0=    0 NMtDT0=    0
 Petite list used in FoFCou.
 Initial guess orbital symmetries:
 Alpha Orbitals:
       Occupied  (A1G) (A1G) (T1U) (T1U)
       Virtual   (T1U) (A1G) (T1U) (T1U) (T1U) (T2G) (T2G) (T2G)
                 (EG) (EG) (A1G) (T1U) (T1U) (T1U) (T2U) (T2U)
                 (T2U) (A2U) (T1U) (T1U) (T1U) (T2G) (T2G) (T2G)
                 (EG) (EG) (A1G)
 Beta  Orbitals:
       Occupied  (A1G) (A1G)
       Virtual   (T1U) (T1U) (T1U) (A1G) (T1U) (T1U) (T1U) (T2G)
                 (T2G) (T2G) (EG) (EG) (A1G) (T1U) (T1U) (T1U)
                 (T2U) (T2U) (T2U) (A2U) (T1U) (T1U) (T1U) (T2G)
                 (T2G) (T2G) (EG) (EG) (A1G)
 Initial guess <Sx>= 0.0000 <Sy>= 0.0000 <Sz>= 1.0000 <S**2>= 2.0000 S= 1.0000
 Keep R1 and R2 ints in memory in symmetry-blocked form, NReq=2077127.
 Requested convergence on RMS density matrix=1.00D-08 within 128 cycles.
 Requested convergence on MAX density matrix=1.00D-06.
 Requested convergence on             energy=1.00D-06.
 No special actions if energy rises.
 Density matrix breaks symmetry, PCut= 1.00D-07
 Density has only Abelian symmetry.
 Density matrix breaks symmetry, PCut= 1.00D-07
 Density has only Abelian symmetry.
 Density matrix breaks symmetry, PCut= 1.00D-07
 Density has only Abelian symmetry.
 Density matrix breaks symmetry, PCut= 1.00D-07
 Density has only Abelian symmetry.
 Density matrix breaks symmetry, PCut= 1.00D-07
 Density has only Abelian symmetry.
 Density matrix breaks symmetry, PCut= 1.00D-07
 Density has only Abelian symmetry.
 Density matrix breaks symmetry, PCut= 1.00D-07
 Density has only Abelian symmetry.
 Density matrix breaks symmetry, PCut= 1.00D-07
 Density has only Abelian symmetry.
 Density matrix breaks symmetry, PCut= 1.00D-07
 Density has only Abelian symmetry.
 Density matrix breaks symmetry, PCut= 1.00D-07
 Density has only Abelian symmetry.
 SCF Done:  E(UHF) =  -37.6924788288     A.U. after    9 cycles
            NFock=  9  Conv=0.27D-08     -V/T= 2.0000
 <Sx>= 0.0000 <Sy>= 0.0000 <Sz>= 1.0000 <S**2>= 2.0100 S= 1.0033
 <L.S>= 0.000000000000E+00
 Annihilation of the first spin contaminant:
 S**2 before annihilation     2.0100,   after     2.0000
 SCF density gives NOpUse=  8 NOpAll= 48.

 **********************************************************************

            Population analysis using the SCF density.

 **********************************************************************

 Orbital symmetries:
 Alpha Orbitals:
       Occupied  (A1G) (?A) (?B) (?B)
       Virtual   (?B) (?A) (?B) (?B) (?B) (T2G) (?A) (T2G) (T2G)
                 (?A) (?A) (?B) (?B) (?B) (?C) (?C) (?C) (A2U)
                 (?C) (?C) (?C) (?A) (T2G) (T2G) (T2G) (?A) (A1G)
 Beta  Orbitals:
       Occupied  (A1G) (?A)
       Virtual   (?B) (?B) (?B) (?A) (?B) (?B) (?B) (?A) (T2G)
                 (T2G) (T2G) (?A) (?A) (T1U) (T1U) (T1U) (?B) (?B)
                 (?B) (A2U) (?B) (?B) (?B) (?A) (T2G) (T2G) (?A)
                 (T2G) (A1G)
 Unable to determine electronic state:  an orbital has unidentified symmetry.
 Alpha  occ. eigenvalues --  -11.34538  -0.82880  -0.43883  -0.43883
 Alpha virt. eigenvalues --    0.03012   0.24071   0.32525   0.32525   0.38232
 Alpha virt. eigenvalues --    0.81965   0.81965   0.83835   0.83835   0.84592
 Alpha virt. eigenvalues --    1.43228   1.64223   1.64223   1.68995   2.93307
 Alpha virt. eigenvalues --    2.93499   2.93499   2.94066   2.94066   2.94990
 Alpha virt. eigenvalues --    2.94990   3.22939   3.22939   3.23837   3.23837
 Alpha virt. eigenvalues --    3.24173  22.26005
  Beta  occ. eigenvalues --  -11.29956  -0.58309
  Beta virt. eigenvalues --    0.06122   0.11016   0.11016   0.27201   0.40673
  Beta virt. eigenvalues --    0.45134   0.45134   0.88849   0.89935   0.89935
  Beta virt. eigenvalues --    0.93496   0.93496   1.50050   1.71644   1.77012
  Beta virt. eigenvalues --    1.77012   2.97345   2.98074   2.98074   3.00282
  Beta virt. eigenvalues --    3.00282   3.04054   3.04054   3.30201   3.31816
  Beta virt. eigenvalues --    3.31816   3.37045   3.37045  22.29127
          Condensed to atoms (all electrons):
               1
     1  C    6.000000
          Atomic-Atomic Spin Densities.
               1
     1  C    2.000000
 Mulliken charges and spin densities:
               1          2
     1  C   -0.000000   2.000000
 Sum of Mulliken charges =  -0.00000   2.00000
 Mulliken charges and spin densities with hydrogens summed into heavy atoms:
               1          2
     1  C   -0.000000   2.000000
 Electronic spatial extent (au):  <R**2>=             13.7337
 Charge=             -0.0000 electrons
 Dipole moment (field-independent basis, Debye):
    X=              0.0000    Y=              0.0000    Z=              0.0000  Tot=              0.0000
 Quadrupole moment (field-independent basis, Debye-Ang):
   XX=             -6.8176   YY=             -6.8176   ZZ=             -4.8371
   XY=             -0.0000   XZ=              0.0000   YZ=             -0.0000
 Traceless Quadrupole moment (field-independent basis, Debye-Ang):
   XX=             -0.6602   YY=             -0.6602   ZZ=              1.3203
   XY=             -0.0000   XZ=              0.0000   YZ=             -0.0000
 Octapole moment (field-independent basis, Debye-Ang**2):
  XXX=              0.0000  YYY=              0.0000  ZZZ=              0.0000  XYY=              0.0000
  XXY=              0.0000  XXZ=              0.0000  XZZ=              0.0000  YZZ=              0.0000
  YYZ=              0.0000  XYZ=              0.0000
 Hexadecapole moment (field-independent basis, Debye-Ang**3):
 XXXX=             -8.7204 YYYY=             -8.7204 ZZZZ=             -4.8110 XXXY=             -0.0000
 XXXZ=              0.0000 YYYX=             -0.0000 YYYZ=             -0.0000 ZZZX=              0.0000
 ZZZY=             -0.0000 XXYY=             -2.9068 XXZZ=             -2.2533 YYZZ=             -2.2533
 XXYZ=             -0.0000 YYXZ=              0.0000 ZZXY=             -0.0000
 N-N= 0.000000000000D+00 E-N=-8.814456122796D+01  KE= 3.769410548768D+01
 Symmetry AG   KE= 3.515980463490D+01
 Symmetry B1G  KE=-9.405160575088D-54
 Symmetry B2G  KE= 2.579944107082D-35
 Symmetry B3G  KE= 2.579944107082D-35
 Symmetry AU   KE= 5.414284390461D-38
 Symmetry B1U  KE= 4.751215548740D-33
 Symmetry B2U  KE= 1.267150426390D+00
 Symmetry B3U  KE= 1.267150426390D+00
 Symmetry AG   SP= 1.375741426161D-14
 Symmetry B1G  SP= 4.606609261281D-53
 Symmetry B2G  SP= 1.187935068285D-36
 Symmetry B3G  SP= 1.187935068285D-36
 Symmetry AU   SP= 1.581043770028D-38
 Symmetry B1U  SP= 3.749446887968D-33
 Symmetry B2U  SP= 1.000000000000D+00
 Symmetry B3U  SP= 1.000000000000D+00
                          Isotropic Fermi Contact Couplings
        Atom                 a.u.       MegaHertz       Gauss      10(-4) cm-1
     1  C(13)              0.05405      30.38056      10.84054      10.13386
 --------------------------------------------------------
       Center         ----  Spin Dipole Couplings  ----
                      3XX-RR        3YY-RR        3ZZ-RR
 --------------------------------------------------------
     1   Atom        0.707478      0.707478     -1.414956
 --------------------------------------------------------
                        XY            XZ            YZ
 --------------------------------------------------------
     1   Atom        0.000000      0.000000      0.000000
 --------------------------------------------------------


 ---------------------------------------------------------------------------------
              Anisotropic Spin Dipole Couplings in Principal Axis System
 ---------------------------------------------------------------------------------

       Atom             a.u.   MegaHertz   Gauss  10(-4) cm-1        Axes

              Baa    -1.4150  -189.874   -67.752   -63.335  0.0000  0.0000  1.0000
     1 C(13)  Bbb     0.7075    94.937    33.876    31.668  1.0000  0.0000  0.0000
              Bcc     0.7075    94.937    33.876    31.668 -0.0000  1.0000  0.0000
 

 ---------------------------------------------------------------------------------

 Range of M.O.s used for correlation:     1    31
 NBasis=    31 NAE=     4 NBE=     2 NFC=     0 NFV=     0
 NROrb=     31 NOA=     4 NOB=     2 NVA=    27 NVB=    29
 Keep R1 and R2 ints in memory in symmetry-blocked form, NReq=2077467.
 Orbital symmetries:
 Alpha Orbitals:
       Occupied  (A1G) (?A) (?B) (?B)
       Virtual   (?B) (?A) (?B) (?B) (?B) (T2G) (?A) (T2G) (T2G)
                 (?A) (?A) (?B) (?B) (?B) (?C) (?C) (?C) (A2U)
                 (?C) (?C) (?C) (?A) (T2G) (T2G) (T2G) (?A) (A1G)
 Beta  Orbitals:
       Occupied  (A1G) (?A)
       Virtual   (?B) (?B) (?B) (?A) (?B) (?B) (?B) (?A) (T2G)
                 (T2G) (T2G) (?A) (?A) (T1U) (T1U) (T1U) (?B) (?B)
                 (?B) (A2U) (?B) (?B) (?B) (?A) (T2G) (T2G) (?A)
                 (T2G) (A1G)
    24 initial guesses have been made.
 Convergence on wavefunction:    0.001000000000000
 Iteration     1 Dimension    24 NMult     0 NNew     24
 CISAX will form    24 AO SS matrices at one time.
 Iteration     2 Dimension    48 NMult    24 NNew     24
 Iteration     3 Dimension    51 NMult    48 NNew      3
 New state      1 was old state      2
 Iteration     4 Dimension    54 NMult    51 NNew      3
 Iteration     5 Dimension    57 NMult    54 NNew      3
 New state      1 was old state      2
 ***********************************************************************
 Stability analysis using <AA,BB:AA,BB> singles matrix:
 ***********************************************************************
 Ground to excited state transition densities written to RWF  633

 Eigenvectors of the stability matrix:
 
 Excited state symmetry could not be determined.
 Eigenvector   1:  3.018-?Sym  Eigenvalue=-0.0000000  <S**2>=2.027
      3A ->  5A       -0.19220
      4A ->  5A        0.93018
      4A ->  9A       -0.28821
 
 Excited state symmetry could not be determined.
 Eigenvector   2:  3.018-?Sym  Eigenvalue=-0.0000000  <S**2>=2.027
      3A ->  5A        0.93018
      3A ->  9A       -0.28821
      4A ->  5A        0.19220
 
 Excited state symmetry could not be determined.
 Eigenvector   3:  4.037-?Sym  Eigenvalue= 0.0794377  <S**2>=3.825
      2A ->  5A       -0.46393
      2A ->  9A        0.20499
      3A -> 13A       -0.11123
      4A -> 12A       -0.11123
      2B ->  3B        0.77988
      2B ->  7B       -0.32334
 The wavefunction is stable under the perturbations considered.
 The wavefunction is already stable.
 SCF density gives NOpUse=  8 NOpAll= 48.

 **********************************************************************

            Population analysis using the SCF density.

 **********************************************************************

 Orbital symmetries:
 Alpha Orbitals:
       Occupied  (A1G) (?A) (?B) (?B)
       Virtual   (?B) (?A) (?B) (?B) (?B) (T2G) (?A) (T2G) (T2G)
                 (?A) (?A) (?B) (?B) (?B) (?C) (?C) (?C) (A2U)
                 (?C) (?C) (?C) (?A) (T2G) (T2G) (T2G) (?A) (A1G)
 Beta  Orbitals:
       Occupied  (A1G) (?A)
       Virtual   (?B) (?B) (?B) (?A) (?B) (?B) (?B) (?A) (T2G)
                 (T2G) (T2G) (?A) (?A) (T1U) (T1U) (T1U) (?B) (?B)
                 (?B) (A2U) (?B) (?B) (?B) (?A) (T2G) (T2G) (?A)
                 (T2G) (A1G)
 Unable to determine electronic state:  an orbital has unidentified symmetry.
 Alpha  occ. eigenvalues --  -11.34538  -0.82880  -0.43883  -0.43883
 Alpha virt. eigenvalues --    0.03012   0.24071   0.32525   0.32525   0.38232
 Alpha virt. eigenvalues --    0.81965   0.81965   0.83835   0.83835   0.84592
 Alpha virt. eigenvalues --    1.43228   1.64223   1.64223   1.68995   2.93307
 Alpha virt. eigenvalues --    2.93499   2.93499   2.94066   2.94066   2.94990
 Alpha virt. eigenvalues --    2.94990   3.22939   3.22939   3.23837   3.23837
 Alpha virt. eigenvalues --    3.24173  22.26005
  Beta  occ. eigenvalues --  -11.29956  -0.58309
  Beta virt. eigenvalues --    0.06122   0.11016   0.11016   0.27201   0.40673
  Beta virt. eigenvalues --    0.45134   0.45134   0.88849   0.89935   0.89935
  Beta virt. eigenvalues --    0.93496   0.93496   1.50050   1.71644   1.77012
  Beta virt. eigenvalues --    1.77012   2.97345   2.98074   2.98074   3.00282
  Beta virt. eigenvalues --    3.00282   3.04054   3.04054   3.30201   3.31816
  Beta virt. eigenvalues --    3.31816   3.37045   3.37045  22.29127
          Condensed to atoms (all electrons):
               1
     1  C    6.000000
          Atomic-Atomic Spin Densities.
               1
     1  C    2.000000
 Mulliken charges and spin densities:
               1          2
     1  C   -0.000000   2.000000
 Sum of Mulliken charges =  -0.00000   2.00000
 Mulliken charges and spin densities with hydrogens summed into heavy atoms:
               1          2
     1  C   -0.000000   2.000000
 Electronic spatial extent (au):  <R**2>=             13.7337
 Charge=             -0.0000 electrons
 Dipole moment (field-independent basis, Debye):
    X=              0.0000    Y=              0.0000    Z=              0.0000  Tot=              0.0000
 Quadrupole moment (field-independent basis, Debye-Ang):
   XX=             -6.8176   YY=             -6.8176   ZZ=             -4.8371
   XY=             -0.0000   XZ=              0.0000   YZ=             -0.0000
 Traceless Quadrupole moment (field-independent basis, Debye-Ang):
   XX=             -0.6602   YY=             -0.6602   ZZ=              1.3203
   XY=             -0.0000   XZ=              0.0000   YZ=             -0.0000
 Octapole moment (field-independent basis, Debye-Ang**2):
  XXX=              0.0000  YYY=              0.0000  ZZZ=              0.0000  XYY=              0.0000
  XXY=              0.0000  XXZ=              0.0000  XZZ=              0.0000  YZZ=              0.0000
  YYZ=              0.0000  XYZ=              0.0000
 Hexadecapole moment (field-independent basis, Debye-Ang**3):
 XXXX=             -8.7204 YYYY=             -8.7204 ZZZZ=             -4.8110 XXXY=             -0.0000
 XXXZ=              0.0000 YYYX=             -0.0000 YYYZ=             -0.0000 ZZZX=              0.0000
 ZZZY=             -0.0000 XXYY=             -2.9068 XXZZ=             -2.2533 YYZZ=             -2.2533
 XXYZ=             -0.0000 YYXZ=              0.0000 ZZXY=             -0.0000
 N-N= 0.000000000000D+00 E-N=-8.814456122796D+01  KE= 3.769410548768D+01
 Symmetry AG   KE= 3.515980463490D+01
 Symmetry B1G  KE=-9.405160575088D-54
 Symmetry B2G  KE= 2.579944107082D-35
 Symmetry B3G  KE= 2.579944107082D-35
 Symmetry AU   KE= 5.414284390461D-38
 Symmetry B1U  KE= 4.751215548740D-33
 Symmetry B2U  KE= 1.267150426390D+00
 Symmetry B3U  KE= 1.267150426390D+00
 Symmetry AG   SP= 1.375741426161D-14
 Symmetry B1G  SP= 4.606609261281D-53
 Symmetry B2G  SP= 1.187935068285D-36
 Symmetry B3G  SP= 1.187935068285D-36
 Symmetry AU   SP= 1.581043770028D-38
 Symmetry B1U  SP= 3.749446887968D-33
 Symmetry B2U  SP= 1.000000000000D+00
 Symmetry B3U  SP= 1.000000000000D+00
                          Isotropic Fermi Contact Couplings
        Atom                 a.u.       MegaHertz       Gauss      10(-4) cm-1
     1  C(13)              0.05405      30.38056      10.84054      10.13386
 --------------------------------------------------------
       Center         ----  Spin Dipole Couplings  ----
                      3XX-RR        3YY-RR        3ZZ-RR
 --------------------------------------------------------
     1   Atom        0.707478      0.707478     -1.414956
 --------------------------------------------------------
                        XY            XZ            YZ
 --------------------------------------------------------
     1   Atom        0.000000      0.000000      0.000000
 --------------------------------------------------------


 ---------------------------------------------------------------------------------
              Anisotropic Spin Dipole Couplings in Principal Axis System
 ---------------------------------------------------------------------------------

       Atom             a.u.   MegaHertz   Gauss  10(-4) cm-1        Axes

              Baa    -1.4150  -189.874   -67.752   -63.335  0.0000  0.0000  1.0000
     1 C(13)  Bbb     0.7075    94.937    33.876    31.668  1.0000  0.0000  0.0000
              Bcc     0.7075    94.937    33.876    31.668 -0.0000  1.0000  0.0000
 

 ---------------------------------------------------------------------------------

 1\1\GINC-MIRAI148\Stability\UHF\def2TZVP\C1(3)\TAKAFUMI\01-Feb-2022\0\
 \# hf/def2tzvp stable=opt\\C\\0,3\C,0,0.,0.,0.\\Version=ES64L-G16RevA.
 03\HF=-37.6924788\S2=2.009981\S2-1=0.\S2A=2.\RMSD=2.698e-09\Dipole=0.,
 0.,0.\Quadrupole=0.9816203,-0.4908102,-0.4908102,0.,0.,0.\PG=OH [O(C1)
 ]\\@


 SEE YOU NOW,
 YOUR BAIT OF FALSEHOOD TAKES THIS CARP OF TRUTH.
 AND THUS DO WE OF WISDOM AND OF REACH...
 BY INDIRECTIONS FIND DIRECTIONS OUT.    -- HAMLET, II, 1
 Job cpu time:       0 days  0 hours  0 minutes  9.1 seconds.
 Elapsed time:       0 days  0 hours  0 minutes  1.7 seconds.
 File lengths (MBytes):  RWF=      6 Int=      0 D2E=      0 Chk=      1 Scr=      1
 Normal termination of Gaussian 16 at Tue Feb  1 20:47:55 2022.
