mirai144
 Entering Gaussian System, Link 0=/home100/hase/g16e01.pgi17.1.c6/g16/g16
 Initial command:
 /home100/hase/g16e01.pgi17.1.c6/g16/l1.exe "/work/takafumi/tmp.13625/Gau-13694.inp" -scrdir="/work/takafumi/tmp.13625/"
 Entering Link 1 = /home100/hase/g16e01.pgi17.1.c6/g16/l1.exe PID=     13695.
  
 Copyright (c) 1988,1990,1992,1993,1995,1998,2003,2009,2016,
            Gaussian, Inc.  All Rights Reserved.
  
 This is part of the Gaussian(R) 16 program.  It is based on
 the Gaussian(R) 09 system (copyright 2009, Gaussian, Inc.),
 the Gaussian(R) 03 system (copyright 2003, Gaussian, Inc.),
 the Gaussian(R) 98 system (copyright 1998, Gaussian, Inc.),
 the Gaussian(R) 94 system (copyright 1995, Gaussian, Inc.),
 the Gaussian 92(TM) system (copyright 1992, Gaussian, Inc.),
 the Gaussian 90(TM) system (copyright 1990, Gaussian, Inc.),
 the Gaussian 88(TM) system (copyright 1988, Gaussian, Inc.),
 the Gaussian 86(TM) system (copyright 1986, Carnegie Mellon
 University), and the Gaussian 82(TM) system (copyright 1983,
 Carnegie Mellon University). Gaussian is a federally registered
 trademark of Gaussian, Inc.
  
 This software contains proprietary and confidential information,
 including trade secrets, belonging to Gaussian, Inc.
  
 This software is provided under written license and may be
 used, copied, transmitted, or stored only in accord with that
 written license.
  
 The following legend is applicable only to US Government
 contracts under FAR:
  
                    RESTRICTED RIGHTS LEGEND
  
 Use, reproduction and disclosure by the US Government is
 subject to restrictions as set forth in subparagraphs (a)
 and (c) of the Commercial Computer Software - Restricted
 Rights clause in FAR 52.227-19.
  
 Gaussian, Inc.
 340 Quinnipiac St., Bldg. 40, Wallingford CT 06492
  
  
 ---------------------------------------------------------------
 Warning -- This program may not be used in any manner that
 competes with the business of Gaussian, Inc. or will provide
 assistance to any competitor of Gaussian, Inc.  The licensee
 of this program is prohibited from giving any competitor of
 Gaussian, Inc. access to this program.  By using this program,
 the user acknowledges that Gaussian, Inc. is engaged in the
 business of creating and licensing software in the field of
 computational chemistry and represents and warrants to the
 licensee that it is not a competitor of Gaussian, Inc. and that
 it will not use this program in any manner prohibited above.
 ---------------------------------------------------------------
  

 Cite this work as:
 Gaussian 16, Revision A.03,
 M. J. Frisch, G. W. Trucks, H. B. Schlegel, G. E. Scuseria, 
 M. A. Robb, J. R. Cheeseman, G. Scalmani, V. Barone, 
 G. A. Petersson, H. Nakatsuji, X. Li, M. Caricato, A. V. Marenich, 
 J. Bloino, B. G. Janesko, R. Gomperts, B. Mennucci, H. P. Hratchian, 
 J. V. Ortiz, A. F. Izmaylov, J. L. Sonnenberg, D. Williams-Young, 
 F. Ding, F. Lipparini, F. Egidi, J. Goings, B. Peng, A. Petrone, 
 T. Henderson, D. Ranasinghe, V. G. Zakrzewski, J. Gao, N. Rega, 
 G. Zheng, W. Liang, M. Hada, M. Ehara, K. Toyota, R. Fukuda, 
 J. Hasegawa, M. Ishida, T. Nakajima, Y. Honda, O. Kitao, H. Nakai, 
 T. Vreven, K. Throssell, J. A. Montgomery, Jr., J. E. Peralta, 
 F. Ogliaro, M. J. Bearpark, J. J. Heyd, E. N. Brothers, K. N. Kudin, 
 V. N. Staroverov, T. A. Keith, R. Kobayashi, J. Normand, 
 K. Raghavachari, A. P. Rendell, J. C. Burant, S. S. Iyengar, 
 J. Tomasi, M. Cossi, J. M. Millam, M. Klene, C. Adamo, R. Cammi, 
 J. W. Ochterski, R. L. Martin, K. Morokuma, O. Farkas, 
 J. B. Foresman, and D. J. Fox, Gaussian, Inc., Wallingford CT, 2016.
 
 ******************************************
 Gaussian 16:  ES64L-G16RevA.03 25-Dec-2016
                 1-Feb-2022 
 ******************************************
 %nprocshared=6
 Will use up to    6 processors via shared memory.
 %mem=10GB
 ------------------------
 # hf/def2tzvp stable=opt
 ------------------------
 1/38=1,172=1/1;
 2/12=2,17=6,18=5,40=1/2;
 3/5=44,7=101,11=2,25=1,30=1/1,2,3;
 4//1;
 5/5=2,38=5/2;
 6/7=2,8=2,9=2,10=2,28=1/1;
 8/6=1,10=90,11=11/1;
 9/8=-3,42=1,46=1/14;
 5/5=2,8=3,17=40,38=5/8(-2);
 6/7=2,8=2,9=2,10=2,28=1/1;
 99/5=1,9=1/99;
 -
 O
 -
 Symbolic Z-matrix:
 Charge =  0 Multiplicity = 3
 O                     0.        0.        0. 
 
                          Input orientation:                          
 ---------------------------------------------------------------------
 Center     Atomic      Atomic             Coordinates (Angstroms)
 Number     Number       Type             X           Y           Z
 ---------------------------------------------------------------------
      1          8           0        0.000000    0.000000    0.000000
 ---------------------------------------------------------------------
 Stoichiometry    O(3)
 Framework group  OH[O(O)]
 Deg. of freedom     0
 Full point group                 OH      NOp  48
 Largest Abelian subgroup         D2H     NOp   8
 Largest concise Abelian subgroup C1      NOp   1
                         Standard orientation:                         
 ---------------------------------------------------------------------
 Center     Atomic      Atomic             Coordinates (Angstroms)
 Number     Number       Type             X           Y           Z
 ---------------------------------------------------------------------
      1          8           0        0.000000    0.000000    0.000000
 ---------------------------------------------------------------------
 Standard basis: def2TZVP (5D, 7F)
 There are    11 symmetry adapted cartesian basis functions of AG  symmetry.
 There are     2 symmetry adapted cartesian basis functions of B1G symmetry.
 There are     2 symmetry adapted cartesian basis functions of B2G symmetry.
 There are     2 symmetry adapted cartesian basis functions of B3G symmetry.
 There are     1 symmetry adapted cartesian basis functions of AU  symmetry.
 There are     6 symmetry adapted cartesian basis functions of B1U symmetry.
 There are     6 symmetry adapted cartesian basis functions of B2U symmetry.
 There are     6 symmetry adapted cartesian basis functions of B3U symmetry.
 There are     9 symmetry adapted basis functions of AG  symmetry.
 There are     2 symmetry adapted basis functions of B1G symmetry.
 There are     2 symmetry adapted basis functions of B2G symmetry.
 There are     2 symmetry adapted basis functions of B3G symmetry.
 There are     1 symmetry adapted basis functions of AU  symmetry.
 There are     5 symmetry adapted basis functions of B1U symmetry.
 There are     5 symmetry adapted basis functions of B2U symmetry.
 There are     5 symmetry adapted basis functions of B3U symmetry.
    31 basis functions,    51 primitive gaussians,    36 cartesian basis functions
     5 alpha electrons        3 beta electrons
       nuclear repulsion energy         0.0000000000 Hartrees.
 NAtoms=    1 NActive=    1 NUniq=    1 SFac= 1.00D+00 NAtFMM=   60 NAOKFM=F Big=F
 Integral buffers will be    131072 words long.
 Raffenetti 2 integral format.
 Two-electron integral symmetry is turned on.
 One-electron integrals computed using PRISM.
  48 Symmetry operations used in ECPInt.
 ECPInt:  NShTT=      66 NPrTT=     232 LenC2=      67 LenP2D=     232.
 LDataN:  DoStor=T MaxTD1= 6 Len=  172
 NBasis=    31 RedAO= T EigKep=  3.02D-02  NBF=     9     2     2     2     1     5     5     5
 NBsUse=    31 1.00D-06 EigRej= -1.00D+00 NBFU=     9     2     2     2     1     5     5     5
 ExpMin= 1.75D-01 ExpMax= 2.70D+04 ExpMxC= 9.22D+02 IAcc=3 IRadAn=         5 AccDes= 0.00D+00
 Harris functional with IExCor=  205 and IRadAn=       5 diagonalized for initial guess.
 HarFok:  IExCor=  205 AccDes= 0.00D+00 IRadAn=         5 IDoV= 1 UseB2=F ITyADJ=14
 ICtDFT=  3500011 ScaDFX=  1.000000  1.000000  1.000000  1.000000
 FoFCou: FMM=F IPFlag=           0 FMFlag=      100000 FMFlg1=           0
         NFxFlg=           0 DoJE=T BraDBF=F KetDBF=T FulRan=T
         wScrn=  0.000000 ICntrl=       500 IOpCl=  0 I1Cent=   200000004 NGrid=           0
         NMat0=    1 NMatS0=      1 NMatT0=    0 NMatD0=    1 NMtDS0=    0 NMtDT0=    0
 Petite list used in FoFCou.
 Initial guess orbital symmetries:
 Alpha Orbitals:
       Occupied  (A1G) (A1G) (T1U) (T1U) (T1U)
       Virtual   (A1G) (T1U) (T1U) (T1U) (T2G) (T2G) (T2G) (EG)
                 (EG) (T1U) (T1U) (T1U) (A1G) (T2U) (T2U) (T2U)
                 (A2U) (T1U) (T1U) (T1U) (T2G) (T2G) (T2G) (EG)
                 (EG) (A1G)
 Beta  Orbitals:
       Occupied  (A1G) (A1G) (T1U)
       Virtual   (T1U) (T1U) (A1G) (T1U) (T1U) (T1U) (T2G) (T2G)
                 (T2G) (EG) (EG) (T1U) (T1U) (T1U) (A1G) (T2U)
                 (T2U) (T2U) (A2U) (T1U) (T1U) (T1U) (T2G) (T2G)
                 (T2G) (EG) (EG) (A1G)
 Initial guess <Sx>= 0.0000 <Sy>= 0.0000 <Sz>= 1.0000 <S**2>= 2.0000 S= 1.0000
 Keep R1 and R2 ints in memory in symmetry-blocked form, NReq=2077127.
 Requested convergence on RMS density matrix=1.00D-08 within 128 cycles.
 Requested convergence on MAX density matrix=1.00D-06.
 Requested convergence on             energy=1.00D-06.
 No special actions if energy rises.
 Density matrix breaks symmetry, PCut= 1.00D-07
 Density has only Abelian symmetry.
 Density matrix breaks symmetry, PCut= 1.00D-07
 Density has only Abelian symmetry.
 Density matrix breaks symmetry, PCut= 1.00D-07
 Density has only Abelian symmetry.
 Density matrix breaks symmetry, PCut= 1.00D-07
 Density has only Abelian symmetry.
 Density matrix breaks symmetry, PCut= 1.00D-07
 Density has only Abelian symmetry.
 Density matrix breaks symmetry, PCut= 1.00D-07
 Density has only Abelian symmetry.
 Density matrix breaks symmetry, PCut= 1.00D-07
 Density has only Abelian symmetry.
 Density matrix breaks symmetry, PCut= 1.00D-07
 Density has only Abelian symmetry.
 Density matrix breaks symmetry, PCut= 1.00D-07
 Density has only Abelian symmetry.
 Density matrix breaks symmetry, PCut= 1.00D-07
 Density has only Abelian symmetry.
 Density matrix breaks symmetry, PCut= 1.00D-07
 Density has only Abelian symmetry.
 SCF Done:  E(UHF) =  -74.8156250913     A.U. after   10 cycles
            NFock= 10  Conv=0.23D-08     -V/T= 1.9999
 <Sx>= 0.0000 <Sy>= 0.0000 <Sz>= 1.0000 <S**2>= 2.0082 S= 1.0027
 <L.S>= 0.000000000000E+00
 Annihilation of the first spin contaminant:
 S**2 before annihilation     2.0082,   after     2.0000
 SCF density gives NOpUse=  8 NOpAll= 48.

 **********************************************************************

            Population analysis using the SCF density.

 **********************************************************************

 Orbital symmetries:
 Alpha Orbitals:
       Occupied  (A1G) (?A) (?B) (?B) (?B)
       Virtual   (A1G) (?B) (?B) (?B) (T2G) (?A) (T2G) (T2G) (?A)
                 (T1U) (T1U) (?A) (T1U) (?B) (?B) (A2U) (?B) (?B)
                 (?B) (?B) (?A) (T2G) (T2G) (T2G) (?A) (A1G)
 Beta  Orbitals:
       Occupied  (A1G) (?A) (?B)
       Virtual   (?B) (?B) (A1G) (?B) (?B) (?B) (?A) (T2G) (T2G)
                 (T2G) (?A) (?B) (?A) (?B) (?B) (?C) (?C) (A2U)
                 (?C) (?C) (?C) (?C) (?A) (T2G) (T2G) (T2G) (?A)
                 (A1G)
 Unable to determine electronic state:  an orbital has unidentified symmetry.
 Alpha  occ. eigenvalues --  -20.70600  -1.41625  -0.70926  -0.70926  -0.61002
 Alpha virt. eigenvalues --    0.47186   0.52632   0.52632   0.56178   1.60973
 Alpha virt. eigenvalues --    1.60973   1.65890   1.65890   1.67616   2.79261
 Alpha virt. eigenvalues --    2.79261   2.86022   2.86382   5.40675   5.40675
 Alpha virt. eigenvalues --    5.45479   5.45479   5.48409   5.48409   5.49394
 Alpha virt. eigenvalues --    6.51169   6.51169   6.58024   6.58024   6.60418
 Alpha virt. eigenvalues --   44.16115
  Beta  occ. eigenvalues --  -20.62670  -1.07450  -0.52089
  Beta virt. eigenvalues --    0.09994   0.09994   0.51597   0.58466   0.67526
  Beta virt. eigenvalues --    0.67526   1.73863   1.74627   1.74627   1.77347
  Beta virt. eigenvalues --    1.77347   2.91058   2.95869   2.97679   2.97679
  Beta virt. eigenvalues --    5.52900   5.52900   5.53994   5.53994   5.54636
  Beta virt. eigenvalues --    5.54636   5.54848   6.69661   6.70072   6.70072
  Beta virt. eigenvalues --    6.71393   6.71393  44.20813
          Condensed to atoms (all electrons):
               1
     1  O    8.000000
          Atomic-Atomic Spin Densities.
               1
     1  O    2.000000
 Mulliken charges and spin densities:
               1          2
     1  O    0.000000   2.000000
 Sum of Mulliken charges =   0.00000   2.00000
 Mulliken charges and spin densities with hydrogens summed into heavy atoms:
               1          2
     1  O    0.000000   2.000000
 Electronic spatial extent (au):  <R**2>=             11.1499
 Charge=              0.0000 electrons
 Dipole moment (field-independent basis, Debye):
    X=              0.0000    Y=              0.0000    Z=              0.0000  Tot=              0.0000
 Quadrupole moment (field-independent basis, Debye-Ang):
   XX=             -5.8438   YY=             -4.5766   ZZ=             -4.5766
   XY=             -0.0000   XZ=              0.0000   YZ=              0.0000
 Traceless Quadrupole moment (field-independent basis, Debye-Ang):
   XX=             -0.8448   YY=              0.4224   ZZ=              0.4224
   XY=             -0.0000   XZ=              0.0000   YZ=              0.0000
 Octapole moment (field-independent basis, Debye-Ang**2):
  XXX=              0.0000  YYY=              0.0000  ZZZ=              0.0000  XYY=              0.0000
  XXY=              0.0000  XXZ=              0.0000  XZZ=              0.0000  YZZ=              0.0000
  YYZ=              0.0000  XYZ=              0.0000
 Hexadecapole moment (field-independent basis, Debye-Ang**3):
 XXXX=             -4.7267 YYYY=             -2.9887 ZZZZ=             -2.9887 XXXY=             -0.0000
 XXXZ=              0.0000 YYYX=             -0.0000 YYYZ=              0.0000 ZZZX=              0.0000
 ZZZY=             -0.0000 XXYY=             -1.2856 XXZZ=             -1.2856 YYZZ=             -0.9962
 XXYZ=             -0.0000 YYXZ=              0.0000 ZZXY=             -0.0000
 N-N= 0.000000000000D+00 E-N=-1.780803237908D+02  KE= 7.482195406616D+01
 Symmetry AG   KE= 6.462039670140D+01
 Symmetry B1G  KE= 2.493885142514D-35
 Symmetry B2G  KE= 2.493885142514D-35
 Symmetry B3G  KE= 7.210729907465D-52
 Symmetry AU   KE= 3.567420582151D-36
 Symmetry B1U  KE= 2.651777037395D+00
 Symmetry B2U  KE= 2.651777037395D+00
 Symmetry B3U  KE= 4.898003289969D+00
 Symmetry AG   SP= 3.180859438692D-15
 Symmetry B1G  SP=-2.386656115549D-36
 Symmetry B2G  SP=-2.386656115549D-36
 Symmetry B3G  SP= 1.085598039191D-52
 Symmetry AU   SP= 5.551541522177D-37
 Symmetry B1U  SP= 1.000000000000D+00
 Symmetry B2U  SP= 1.000000000000D+00
 Symmetry B3U  SP=-2.205375639053D-15
                          Isotropic Fermi Contact Couplings
        Atom                 a.u.       MegaHertz       Gauss      10(-4) cm-1
     1  O(17)              0.11979     -36.30885     -12.95590     -12.11133
 --------------------------------------------------------
       Center         ----  Spin Dipole Couplings  ----
                      3XX-RR        3YY-RR        3ZZ-RR
 --------------------------------------------------------
     1   Atom       -3.944921      1.972461      1.972461
 --------------------------------------------------------
                        XY            XZ            YZ
 --------------------------------------------------------
     1   Atom        0.000000      0.000000      0.000000
 --------------------------------------------------------


 ---------------------------------------------------------------------------------
              Anisotropic Spin Dipole Couplings in Principal Axis System
 ---------------------------------------------------------------------------------

       Atom             a.u.   MegaHertz   Gauss  10(-4) cm-1        Axes

              Baa    -3.9449   285.452   101.856    95.216  1.0000  0.0000  0.0000
     1 O(17)  Bbb     1.9725  -142.726   -50.928   -47.608 -0.0000  1.0000  0.0000
              Bcc     1.9725  -142.726   -50.928   -47.608  0.0000  0.0000  1.0000
 

 ---------------------------------------------------------------------------------

 Range of M.O.s used for correlation:     1    31
 NBasis=    31 NAE=     5 NBE=     3 NFC=     0 NFV=     0
 NROrb=     31 NOA=     5 NOB=     3 NVA=    26 NVB=    28
 Keep R1 and R2 ints in memory in symmetry-blocked form, NReq=2077467.
 Orbital symmetries:
 Alpha Orbitals:
       Occupied  (A1G) (?A) (?B) (?B) (?B)
       Virtual   (A1G) (?B) (?B) (?B) (T2G) (?A) (T2G) (T2G) (?A)
                 (T1U) (T1U) (?A) (T1U) (?B) (?B) (A2U) (?B) (?B)
                 (?B) (?B) (?A) (T2G) (T2G) (T2G) (?A) (A1G)
 Beta  Orbitals:
       Occupied  (A1G) (?A) (?B)
       Virtual   (?B) (?B) (A1G) (?B) (?B) (?B) (?A) (T2G) (T2G)
                 (T2G) (?A) (?B) (?A) (?B) (?B) (?C) (?C) (A2U)
                 (?C) (?C) (?C) (?C) (?A) (T2G) (T2G) (T2G) (?A)
                 (A1G)
    24 initial guesses have been made.
 Convergence on wavefunction:    0.001000000000000
 Iteration     1 Dimension    24 NMult     0 NNew     24
 CISAX will form    24 AO SS matrices at one time.
 New state      1 was old state      2
 Iteration     2 Dimension    48 NMult    24 NNew     24
 Iteration     3 Dimension    51 NMult    48 NNew      3
 Iteration     4 Dimension    54 NMult    51 NNew      3
 New state      1 was old state      2
 Iteration     5 Dimension    57 NMult    54 NNew      3
 New state      1 was old state      2
 Iteration     6 Dimension    58 NMult    57 NNew      1
 ***********************************************************************
 Stability analysis using <AA,BB:AA,BB> singles matrix:
 ***********************************************************************
 Ground to excited state transition densities written to RWF  633

 Eigenvectors of the stability matrix:
 
 Excited state symmetry could not be determined.
 Eigenvector   1:  3.011-?Sym  Eigenvalue= 0.0000000  <S**2>=2.017
      3B ->  4B        0.95064
      3B ->  5B       -0.12029
      3B ->  9B       -0.26867
 
 Excited state symmetry could not be determined.
 Eigenvector   2:  3.011-?Sym  Eigenvalue= 0.0000000  <S**2>=2.017
      3B ->  4B        0.12029
      3B ->  5B        0.95064
      3B ->  8B       -0.26867
 
 Excited state symmetry could not be determined.
 Eigenvector   3:  3.015-?Sym  Eigenvalue= 0.5215982  <S**2>=2.022
      3A -> 10A       -0.11475
      4A ->  6A        0.19595
      4A -> 11A        0.11475
      5A -> 12A       -0.12159
      2B ->  4B        0.90970
      2B ->  9B       -0.27823
 The wavefunction is stable under the perturbations considered.
 The wavefunction is already stable.
 SCF density gives NOpUse=  8 NOpAll= 48.

 **********************************************************************

            Population analysis using the SCF density.

 **********************************************************************

 Orbital symmetries:
 Alpha Orbitals:
       Occupied  (A1G) (?A) (?B) (?B) (?B)
       Virtual   (A1G) (?B) (?B) (?B) (T2G) (?A) (T2G) (T2G) (?A)
                 (T1U) (T1U) (?A) (T1U) (?B) (?B) (A2U) (?B) (?B)
                 (?B) (?B) (?A) (T2G) (T2G) (T2G) (?A) (A1G)
 Beta  Orbitals:
       Occupied  (A1G) (?A) (?B)
       Virtual   (?B) (?B) (A1G) (?B) (?B) (?B) (?A) (T2G) (T2G)
                 (T2G) (?A) (?B) (?A) (?B) (?B) (?C) (?C) (A2U)
                 (?C) (?C) (?C) (?C) (?A) (T2G) (T2G) (T2G) (?A)
                 (A1G)
 Unable to determine electronic state:  an orbital has unidentified symmetry.
 Alpha  occ. eigenvalues --  -20.70600  -1.41625  -0.70926  -0.70926  -0.61002
 Alpha virt. eigenvalues --    0.47186   0.52632   0.52632   0.56178   1.60973
 Alpha virt. eigenvalues --    1.60973   1.65890   1.65890   1.67616   2.79261
 Alpha virt. eigenvalues --    2.79261   2.86022   2.86382   5.40675   5.40675
 Alpha virt. eigenvalues --    5.45479   5.45479   5.48409   5.48409   5.49394
 Alpha virt. eigenvalues --    6.51169   6.51169   6.58024   6.58024   6.60418
 Alpha virt. eigenvalues --   44.16115
  Beta  occ. eigenvalues --  -20.62670  -1.07450  -0.52089
  Beta virt. eigenvalues --    0.09994   0.09994   0.51597   0.58466   0.67526
  Beta virt. eigenvalues --    0.67526   1.73863   1.74627   1.74627   1.77347
  Beta virt. eigenvalues --    1.77347   2.91058   2.95869   2.97679   2.97679
  Beta virt. eigenvalues --    5.52900   5.52900   5.53994   5.53994   5.54636
  Beta virt. eigenvalues --    5.54636   5.54848   6.69661   6.70072   6.70072
  Beta virt. eigenvalues --    6.71393   6.71393  44.20813
          Condensed to atoms (all electrons):
               1
     1  O    8.000000
          Atomic-Atomic Spin Densities.
               1
     1  O    2.000000
 Mulliken charges and spin densities:
               1          2
     1  O    0.000000   2.000000
 Sum of Mulliken charges =   0.00000   2.00000
 Mulliken charges and spin densities with hydrogens summed into heavy atoms:
               1          2
     1  O    0.000000   2.000000
 Electronic spatial extent (au):  <R**2>=             11.1499
 Charge=              0.0000 electrons
 Dipole moment (field-independent basis, Debye):
    X=              0.0000    Y=              0.0000    Z=              0.0000  Tot=              0.0000
 Quadrupole moment (field-independent basis, Debye-Ang):
   XX=             -5.8438   YY=             -4.5766   ZZ=             -4.5766
   XY=             -0.0000   XZ=              0.0000   YZ=              0.0000
 Traceless Quadrupole moment (field-independent basis, Debye-Ang):
   XX=             -0.8448   YY=              0.4224   ZZ=              0.4224
   XY=             -0.0000   XZ=              0.0000   YZ=              0.0000
 Octapole moment (field-independent basis, Debye-Ang**2):
  XXX=              0.0000  YYY=              0.0000  ZZZ=              0.0000  XYY=              0.0000
  XXY=              0.0000  XXZ=              0.0000  XZZ=              0.0000  YZZ=              0.0000
  YYZ=              0.0000  XYZ=              0.0000
 Hexadecapole moment (field-independent basis, Debye-Ang**3):
 XXXX=             -4.7267 YYYY=             -2.9887 ZZZZ=             -2.9887 XXXY=             -0.0000
 XXXZ=              0.0000 YYYX=             -0.0000 YYYZ=              0.0000 ZZZX=              0.0000
 ZZZY=             -0.0000 XXYY=             -1.2856 XXZZ=             -1.2856 YYZZ=             -0.9962
 XXYZ=             -0.0000 YYXZ=              0.0000 ZZXY=             -0.0000
 N-N= 0.000000000000D+00 E-N=-1.780803237908D+02  KE= 7.482195406616D+01
 Symmetry AG   KE= 6.462039670140D+01
 Symmetry B1G  KE= 2.493885142514D-35
 Symmetry B2G  KE= 2.493885142514D-35
 Symmetry B3G  KE= 7.210729907465D-52
 Symmetry AU   KE= 3.567420582151D-36
 Symmetry B1U  KE= 2.651777037395D+00
 Symmetry B2U  KE= 2.651777037395D+00
 Symmetry B3U  KE= 4.898003289969D+00
 Symmetry AG   SP= 3.180859438692D-15
 Symmetry B1G  SP=-2.386656115549D-36
 Symmetry B2G  SP=-2.386656115549D-36
 Symmetry B3G  SP= 1.085598039191D-52
 Symmetry AU   SP= 5.551541522177D-37
 Symmetry B1U  SP= 1.000000000000D+00
 Symmetry B2U  SP= 1.000000000000D+00
 Symmetry B3U  SP=-2.205375639053D-15
                          Isotropic Fermi Contact Couplings
        Atom                 a.u.       MegaHertz       Gauss      10(-4) cm-1
     1  O(17)              0.11979     -36.30885     -12.95590     -12.11133
 --------------------------------------------------------
       Center         ----  Spin Dipole Couplings  ----
                      3XX-RR        3YY-RR        3ZZ-RR
 --------------------------------------------------------
     1   Atom       -3.944921      1.972461      1.972461
 --------------------------------------------------------
                        XY            XZ            YZ
 --------------------------------------------------------
     1   Atom        0.000000      0.000000      0.000000
 --------------------------------------------------------


 ---------------------------------------------------------------------------------
              Anisotropic Spin Dipole Couplings in Principal Axis System
 ---------------------------------------------------------------------------------

       Atom             a.u.   MegaHertz   Gauss  10(-4) cm-1        Axes

              Baa    -3.9449   285.452   101.856    95.216  1.0000  0.0000  0.0000
     1 O(17)  Bbb     1.9725  -142.726   -50.928   -47.608 -0.0000  1.0000  0.0000
              Bcc     1.9725  -142.726   -50.928   -47.608  0.0000  0.0000  1.0000
 

 ---------------------------------------------------------------------------------

 1\1\GINC-MIRAI144\Stability\UHF\def2TZVP\O1(3)\TAKAFUMI\01-Feb-2022\0\
 \# hf/def2tzvp stable=opt\\O\\0,3\O,0,0.,0.,0.\\Version=ES64L-G16RevA.
 03\HF=-74.8156251\S2=2.008227\S2-1=0.\S2A=2.000023\RMSD=2.310e-09\Dipo
 le=0.,0.,0.\Quadrupole=0.3140357,0.3140357,-0.6280714,0.,0.,0.\PG=OH [
 O(O1)]\\@


 GROWING OLD ISN'T SO BAD -- WHEN YOU CONSIDER THE ALTERNATIVE.

                     -- MAURICE CHEVALIER
 Job cpu time:       0 days  0 hours  0 minutes  8.9 seconds.
 Elapsed time:       0 days  0 hours  0 minutes  1.6 seconds.
 File lengths (MBytes):  RWF=      6 Int=      0 D2E=      0 Chk=      1 Scr=      1
 Normal termination of Gaussian 16 at Tue Feb  1 20:48:55 2022.
