mirai146
 Entering Gaussian System, Link 0=/home100/hase/g16e01.pgi17.1.c6/g16/g16
 Initial command:
 /home100/hase/g16e01.pgi17.1.c6/g16/l1.exe "/work/takafumi/tmp.9666/Gau-9733.inp" -scrdir="/work/takafumi/tmp.9666/"
 Entering Link 1 = /home100/hase/g16e01.pgi17.1.c6/g16/l1.exe PID=      9734.
  
 Copyright (c) 1988,1990,1992,1993,1995,1998,2003,2009,2016,
            Gaussian, Inc.  All Rights Reserved.
  
 This is part of the Gaussian(R) 16 program.  It is based on
 the Gaussian(R) 09 system (copyright 2009, Gaussian, Inc.),
 the Gaussian(R) 03 system (copyright 2003, Gaussian, Inc.),
 the Gaussian(R) 98 system (copyright 1998, Gaussian, Inc.),
 the Gaussian(R) 94 system (copyright 1995, Gaussian, Inc.),
 the Gaussian 92(TM) system (copyright 1992, Gaussian, Inc.),
 the Gaussian 90(TM) system (copyright 1990, Gaussian, Inc.),
 the Gaussian 88(TM) system (copyright 1988, Gaussian, Inc.),
 the Gaussian 86(TM) system (copyright 1986, Carnegie Mellon
 University), and the Gaussian 82(TM) system (copyright 1983,
 Carnegie Mellon University). Gaussian is a federally registered
 trademark of Gaussian, Inc.
  
 This software contains proprietary and confidential information,
 including trade secrets, belonging to Gaussian, Inc.
  
 This software is provided under written license and may be
 used, copied, transmitted, or stored only in accord with that
 written license.
  
 The following legend is applicable only to US Government
 contracts under FAR:
  
                    RESTRICTED RIGHTS LEGEND
  
 Use, reproduction and disclosure by the US Government is
 subject to restrictions as set forth in subparagraphs (a)
 and (c) of the Commercial Computer Software - Restricted
 Rights clause in FAR 52.227-19.
  
 Gaussian, Inc.
 340 Quinnipiac St., Bldg. 40, Wallingford CT 06492
  
  
 ---------------------------------------------------------------
 Warning -- This program may not be used in any manner that
 competes with the business of Gaussian, Inc. or will provide
 assistance to any competitor of Gaussian, Inc.  The licensee
 of this program is prohibited from giving any competitor of
 Gaussian, Inc. access to this program.  By using this program,
 the user acknowledges that Gaussian, Inc. is engaged in the
 business of creating and licensing software in the field of
 computational chemistry and represents and warrants to the
 licensee that it is not a competitor of Gaussian, Inc. and that
 it will not use this program in any manner prohibited above.
 ---------------------------------------------------------------
  

 Cite this work as:
 Gaussian 16, Revision A.03,
 M. J. Frisch, G. W. Trucks, H. B. Schlegel, G. E. Scuseria, 
 M. A. Robb, J. R. Cheeseman, G. Scalmani, V. Barone, 
 G. A. Petersson, H. Nakatsuji, X. Li, M. Caricato, A. V. Marenich, 
 J. Bloino, B. G. Janesko, R. Gomperts, B. Mennucci, H. P. Hratchian, 
 J. V. Ortiz, A. F. Izmaylov, J. L. Sonnenberg, D. Williams-Young, 
 F. Ding, F. Lipparini, F. Egidi, J. Goings, B. Peng, A. Petrone, 
 T. Henderson, D. Ranasinghe, V. G. Zakrzewski, J. Gao, N. Rega, 
 G. Zheng, W. Liang, M. Hada, M. Ehara, K. Toyota, R. Fukuda, 
 J. Hasegawa, M. Ishida, T. Nakajima, Y. Honda, O. Kitao, H. Nakai, 
 T. Vreven, K. Throssell, J. A. Montgomery, Jr., J. E. Peralta, 
 F. Ogliaro, M. J. Bearpark, J. J. Heyd, E. N. Brothers, K. N. Kudin, 
 V. N. Staroverov, T. A. Keith, R. Kobayashi, J. Normand, 
 K. Raghavachari, A. P. Rendell, J. C. Burant, S. S. Iyengar, 
 J. Tomasi, M. Cossi, J. M. Millam, M. Klene, C. Adamo, R. Cammi, 
 J. W. Ochterski, R. L. Martin, K. Morokuma, O. Farkas, 
 J. B. Foresman, and D. J. Fox, Gaussian, Inc., Wallingford CT, 2016.
 
 ******************************************
 Gaussian 16:  ES64L-G16RevA.03 25-Dec-2016
                 1-Feb-2022 
 ******************************************
 %nprocshared=6
 Will use up to    6 processors via shared memory.
 %mem=10GB
 ---------------
 # ccsd/def2tzvp
 ---------------
 1/38=1,172=1/1;
 2/12=2,17=6,18=5,40=1/2;
 3/5=44,7=101,11=9,25=1,30=1/1,2,3;
 4//1;
 5/5=2,38=5/2;
 8/6=4,9=120000,10=1/1,4;
 9/5=7/13;
 6/7=2,8=2,9=2,10=2/1;
 99/5=1,9=1/99;
 -
 C
 -
 Symbolic Z-matrix:
 Charge =  0 Multiplicity = 3
 C                     0.        0.        0. 
 
                          Input orientation:                          
 ---------------------------------------------------------------------
 Center     Atomic      Atomic             Coordinates (Angstroms)
 Number     Number       Type             X           Y           Z
 ---------------------------------------------------------------------
      1          6           0        0.000000    0.000000    0.000000
 ---------------------------------------------------------------------
 Stoichiometry    C(3)
 Framework group  OH[O(C)]
 Deg. of freedom     0
 Full point group                 OH      NOp  48
 Largest Abelian subgroup         D2H     NOp   8
 Largest concise Abelian subgroup C1      NOp   1
                         Standard orientation:                         
 ---------------------------------------------------------------------
 Center     Atomic      Atomic             Coordinates (Angstroms)
 Number     Number       Type             X           Y           Z
 ---------------------------------------------------------------------
      1          6           0        0.000000    0.000000    0.000000
 ---------------------------------------------------------------------
 Standard basis: def2TZVP (5D, 7F)
 There are    11 symmetry adapted cartesian basis functions of AG  symmetry.
 There are     2 symmetry adapted cartesian basis functions of B1G symmetry.
 There are     2 symmetry adapted cartesian basis functions of B2G symmetry.
 There are     2 symmetry adapted cartesian basis functions of B3G symmetry.
 There are     1 symmetry adapted cartesian basis functions of AU  symmetry.
 There are     6 symmetry adapted cartesian basis functions of B1U symmetry.
 There are     6 symmetry adapted cartesian basis functions of B2U symmetry.
 There are     6 symmetry adapted cartesian basis functions of B3U symmetry.
 There are     9 symmetry adapted basis functions of AG  symmetry.
 There are     2 symmetry adapted basis functions of B1G symmetry.
 There are     2 symmetry adapted basis functions of B2G symmetry.
 There are     2 symmetry adapted basis functions of B3G symmetry.
 There are     1 symmetry adapted basis functions of AU  symmetry.
 There are     5 symmetry adapted basis functions of B1U symmetry.
 There are     5 symmetry adapted basis functions of B2U symmetry.
 There are     5 symmetry adapted basis functions of B3U symmetry.
    31 basis functions,    51 primitive gaussians,    36 cartesian basis functions
     4 alpha electrons        2 beta electrons
       nuclear repulsion energy         0.0000000000 Hartrees.
 NAtoms=    1 NActive=    1 NUniq=    1 SFac= 1.00D+00 NAtFMM=   60 NAOKFM=F Big=F
 Integral buffers will be    131072 words long.
 Raffenetti 2 integral format.
 Two-electron integral symmetry is turned on.
 One-electron integrals computed using PRISM.
  48 Symmetry operations used in ECPInt.
 ECPInt:  NShTT=      66 NPrTT=     232 LenC2=      67 LenP2D=     232.
 LDataN:  DoStor=T MaxTD1= 6 Len=  172
 NBasis=    31 RedAO= T EigKep=  2.86D-02  NBF=     9     2     2     2     1     5     5     5
 NBsUse=    31 1.00D-06 EigRej= -1.00D+00 NBFU=     9     2     2     2     1     5     5     5
 ExpMin= 9.52D-02 ExpMax= 1.36D+04 ExpMxC= 4.63D+02 IAcc=3 IRadAn=         5 AccDes= 0.00D+00
 Harris functional with IExCor=  205 and IRadAn=       5 diagonalized for initial guess.
 HarFok:  IExCor=  205 AccDes= 0.00D+00 IRadAn=         5 IDoV= 1 UseB2=F ITyADJ=14
 ICtDFT=  3500011 ScaDFX=  1.000000  1.000000  1.000000  1.000000
 FoFCou: FMM=F IPFlag=           0 FMFlag=      100000 FMFlg1=           0
         NFxFlg=           0 DoJE=T BraDBF=F KetDBF=T FulRan=T
         wScrn=  0.000000 ICntrl=       500 IOpCl=  0 I1Cent=   200000004 NGrid=           0
         NMat0=    1 NMatS0=      1 NMatT0=    0 NMatD0=    1 NMtDS0=    0 NMtDT0=    0
 Petite list used in FoFCou.
 Initial guess orbital symmetries:
 Alpha Orbitals:
       Occupied  (A1G) (A1G) (T1U) (T1U)
       Virtual   (T1U) (A1G) (T1U) (T1U) (T1U) (T2G) (T2G) (T2G)
                 (EG) (EG) (A1G) (T1U) (T1U) (T1U) (T2U) (T2U)
                 (T2U) (A2U) (T1U) (T1U) (T1U) (T2G) (T2G) (T2G)
                 (EG) (EG) (A1G)
 Beta  Orbitals:
       Occupied  (A1G) (A1G)
       Virtual   (T1U) (T1U) (T1U) (A1G) (T1U) (T1U) (T1U) (T2G)
                 (T2G) (T2G) (EG) (EG) (A1G) (T1U) (T1U) (T1U)
                 (T2U) (T2U) (T2U) (A2U) (T1U) (T1U) (T1U) (T2G)
                 (T2G) (T2G) (EG) (EG) (A1G)
 Initial guess <Sx>= 0.0000 <Sy>= 0.0000 <Sz>= 1.0000 <S**2>= 2.0000 S= 1.0000
 Keep R1 and R2 ints in memory in symmetry-blocked form, NReq=2077127.
 Requested convergence on RMS density matrix=1.00D-08 within 128 cycles.
 Requested convergence on MAX density matrix=1.00D-06.
 Requested convergence on             energy=1.00D-06.
 No special actions if energy rises.
 Density matrix breaks symmetry, PCut= 1.00D-07
 Density has only Abelian symmetry.
 Density matrix breaks symmetry, PCut= 1.00D-07
 Density has only Abelian symmetry.
 Density matrix breaks symmetry, PCut= 1.00D-07
 Density has only Abelian symmetry.
 Density matrix breaks symmetry, PCut= 1.00D-07
 Density has only Abelian symmetry.
 Density matrix breaks symmetry, PCut= 1.00D-07
 Density has only Abelian symmetry.
 Density matrix breaks symmetry, PCut= 1.00D-07
 Density has only Abelian symmetry.
 Density matrix breaks symmetry, PCut= 1.00D-07
 Density has only Abelian symmetry.
 Density matrix breaks symmetry, PCut= 1.00D-07
 Density has only Abelian symmetry.
 Density matrix breaks symmetry, PCut= 1.00D-07
 Density has only Abelian symmetry.
 Density matrix breaks symmetry, PCut= 1.00D-07
 Density has only Abelian symmetry.
 SCF Done:  E(UHF) =  -37.6924788288     A.U. after    9 cycles
            NFock=  9  Conv=0.27D-08     -V/T= 2.0000
 <Sx>= 0.0000 <Sy>= 0.0000 <Sz>= 1.0000 <S**2>= 2.0100 S= 1.0033
 <L.S>= 0.000000000000E+00
 Annihilation of the first spin contaminant:
 S**2 before annihilation     2.0100,   after     2.0000
 ExpMin= 9.52D-02 ExpMax= 1.36D+04 ExpMxC= 4.63D+02 IAcc=3 IRadAn=         5 AccDes= 0.00D+00
 HarFok:  IExCor=  205 AccDes= 0.00D+00 IRadAn=         5 IDoV=-2 UseB2=F ITyADJ=14
 ICtDFT= 12500011 ScaDFX=  1.000000  1.000000  1.000000  1.000000
 Range of M.O.s used for correlation:     2    31
 NBasis=    31 NAE=     4 NBE=     2 NFC=     1 NFV=     0
 NROrb=     30 NOA=     3 NOB=     1 NVA=    27 NVB=    29
 Semi-Direct transformation.
 ModeAB=           2 MOrb=             3 LenV=    1341931255
 LASXX=         4713 LTotXX=        4713 LenRXX=        4713
 LTotAB=        5472 MaxLAS=       59940 LenRXY=       59940
 NonZer=       67500 LenScr=      785920 LnRSAI=           0
 LnScr1=           0 LExtra=           0 Total=       850573
 MaxDsk=          -1 SrtSym=           F ITran=            4
 JobTyp=1 Pass  1:  I=   1 to   3.
 (rs|ai) integrals will be sorted in core.
 ModeAB=           2 MOrb=             1 LenV=    1341931255
 LASXX=         1695 LTotXX=        1695 LenRXX=       19980
 LTotAB=        1608 MaxLAS=       19980 LenRXY=        1608
 NonZer=       22500 LenScr=      785920 LnRSAI=           0
 LnScr1=           0 LExtra=           0 Total=       807508
 MaxDsk=          -1 SrtSym=           F ITran=            4
 JobTyp=2 Pass  1:  I=   1 to   1.
 (rs|ai) integrals will be sorted in core.
 Spin components of T(2) and E(2):
     alpha-alpha T2 =       0.4141413952D-02 E2=     -0.1242146405D-01
     alpha-beta  T2 =       0.2106242934D-01 E2=     -0.5368879090D-01
     beta-beta   T2 =       0.0000000000D+00 E2=      0.0000000000D+00
 ANorm=    0.1012523503D+01
 E2 =    -0.6611025495D-01 EUMP2 =    -0.37758589083788D+02
 (S**2,0)=  0.20100D+01           (S**2,1)=  0.20019D+01
 E(PUHF)=      -0.37694729847D+02        E(PMP2)=      -0.37759927315D+02
 Keep R2 and R3 ints in memory in symmetry-blocked form, NReq=2080267.
 CIDS: In Core Option IDoMem=           1.
 Iterations=  50 Convergence= 0.100D-06
 Produce multiple copies of IABC intergrals
 Iteration Nr.   1
 **********************
 DD1Dir will call FoFMem   1 times, MxPair=        10
 NAB=     3 NAA=     3 NBB=     0.
 E(PMP3)=      -0.37774255693D+02
 MP4(R+Q)=  0.14637999D-02
 E3=       -0.14968393D-01        EUMP3=      -0.37773557476D+02
 E4(DQ)=   -0.34317749D-02        UMP4(DQ)=   -0.37776989251D+02
 E4(SDQ)=  -0.36352397D-02        UMP4(SDQ)=  -0.37777192716D+02
 DE(Corr)= -0.79614180E-01 E(Corr)=     -37.772093009    
 NORM(A)=   0.10219298D+01
 Iteration Nr.   2
 **********************
 DD1Dir will call FoFMem   1 times, MxPair=        10
 NAB=     3 NAA=     3 NBB=     0.
 DE(Corr)= -0.84530917E-01 E(CORR)=     -37.777009746     Delta=-4.92D-03
 NORM(A)=   0.10254628D+01
 Iteration Nr.   3
 **********************
 DD1Dir will call FoFMem   1 times, MxPair=        10
 NAB=     3 NAA=     3 NBB=     0.
 DE(Corr)= -0.86222160E-01 E(CORR)=     -37.778700989     Delta=-1.69D-03
 NORM(A)=   0.10262557D+01
 Iteration Nr.   4
 **********************
 DD1Dir will call FoFMem   1 times, MxPair=        10
 NAB=     3 NAA=     3 NBB=     0.
 DE(Corr)= -0.86524807E-01 E(CORR)=     -37.779003636     Delta=-3.03D-04
 NORM(A)=   0.10262450D+01
 Iteration Nr.   5
 **********************
 DD1Dir will call FoFMem   1 times, MxPair=        10
 NAB=     3 NAA=     3 NBB=     0.
 DE(Corr)= -0.86517043E-01 E(CORR)=     -37.778995872     Delta= 7.76D-06
 NORM(A)=   0.10262561D+01
 Iteration Nr.   6
 **********************
 DD1Dir will call FoFMem   1 times, MxPair=        10
 NAB=     3 NAA=     3 NBB=     0.
 DE(Corr)= -0.86520719E-01 E(CORR)=     -37.778999548     Delta=-3.68D-06
 NORM(A)=   0.10262552D+01
 Iteration Nr.   7
 **********************
 DD1Dir will call FoFMem   1 times, MxPair=        10
 NAB=     3 NAA=     3 NBB=     0.
 DE(Corr)= -0.86520321E-01 E(CORR)=     -37.778999150     Delta= 3.98D-07
 NORM(A)=   0.10262557D+01
 Iteration Nr.   8
 **********************
 DD1Dir will call FoFMem   1 times, MxPair=        10
 NAB=     3 NAA=     3 NBB=     0.
 DE(Corr)= -0.86520462E-01 E(CORR)=     -37.778999291     Delta=-1.41D-07
 NORM(A)=   0.10262557D+01
 Iteration Nr.   9
 **********************
 DD1Dir will call FoFMem   1 times, MxPair=        10
 NAB=     3 NAA=     3 NBB=     0.
 DE(Corr)= -0.86520480E-01 E(CORR)=     -37.778999309     Delta=-1.76D-08
 NORM(A)=   0.10262556D+01
 Wavefunction amplitudes converged. E(Corr)=     -37.778999309    
 Dominant configurations:
 ***********************
 Spin Case        I    J    A    B          Value
   ABAB           2    2    5    3      -0.104747D+00
 Largest amplitude= 1.05D-01

 S**2, projected HF & approx projected MPn energies after annihilation of
 unwanted spin states (see manual for definitions):

 spins       (S**2,0) (S**2,1)    PUHF        PMP2        PMP3        PMP4
 annihilated
 s+1         2.00000  2.00000  -37.694730  -37.759927  -37.774256

 Discarding MO integrals.
 SCF density gives NOpUse=  8 NOpAll= 48.

 **********************************************************************

            Population analysis using the SCF density.

 **********************************************************************

 Orbital symmetries:
 Alpha Orbitals:
       Occupied  (A1G) (?A) (?B) (?B)
       Virtual   (?B) (?A) (?B) (?B) (?B) (T2G) (?A) (T2G) (T2G)
                 (?A) (?A) (?B) (?B) (?B) (?C) (?C) (?C) (A2U)
                 (?C) (?C) (?C) (?A) (T2G) (T2G) (T2G) (?A) (A1G)
 Beta  Orbitals:
       Occupied  (A1G) (?A)
       Virtual   (?B) (?B) (?B) (?A) (?B) (?B) (?B) (?A) (T2G)
                 (T2G) (T2G) (?A) (?A) (T1U) (T1U) (T1U) (?B) (?B)
                 (?B) (A2U) (?B) (?B) (?B) (?A) (T2G) (T2G) (?A)
                 (T2G) (A1G)
 Unable to determine electronic state:  an orbital has unidentified symmetry.
 Alpha  occ. eigenvalues --  -11.34538  -0.82880  -0.43883  -0.43883
 Alpha virt. eigenvalues --    0.03012   0.24071   0.32525   0.32525   0.38232
 Alpha virt. eigenvalues --    0.81965   0.81965   0.83835   0.83835   0.84592
 Alpha virt. eigenvalues --    1.43228   1.64223   1.64223   1.68995   2.93307
 Alpha virt. eigenvalues --    2.93499   2.93499   2.94066   2.94066   2.94990
 Alpha virt. eigenvalues --    2.94990   3.22939   3.22939   3.23837   3.23837
 Alpha virt. eigenvalues --    3.24173  22.26005
  Beta  occ. eigenvalues --  -11.29956  -0.58309
  Beta virt. eigenvalues --    0.06122   0.11016   0.11016   0.27201   0.40673
  Beta virt. eigenvalues --    0.45134   0.45134   0.88849   0.89935   0.89935
  Beta virt. eigenvalues --    0.93496   0.93496   1.50050   1.71644   1.77012
  Beta virt. eigenvalues --    1.77012   2.97345   2.98074   2.98074   3.00282
  Beta virt. eigenvalues --    3.00282   3.04054   3.04054   3.30201   3.31816
  Beta virt. eigenvalues --    3.31816   3.37045   3.37045  22.29127
          Condensed to atoms (all electrons):
               1
     1  C    6.000000
          Atomic-Atomic Spin Densities.
               1
     1  C    2.000000
 Mulliken charges and spin densities:
               1          2
     1  C    0.000000   2.000000
 Sum of Mulliken charges =   0.00000   2.00000
 Mulliken charges and spin densities with hydrogens summed into heavy atoms:
               1          2
     1  C    0.000000   2.000000
 Electronic spatial extent (au):  <R**2>=             13.7337
 Charge=              0.0000 electrons
 Dipole moment (field-independent basis, Debye):
    X=              0.0000    Y=              0.0000    Z=              0.0000  Tot=              0.0000
 Quadrupole moment (field-independent basis, Debye-Ang):
   XX=             -6.8176   YY=             -4.8371   ZZ=             -6.8176
   XY=             -0.0000   XZ=              0.0000   YZ=              0.0000
 Traceless Quadrupole moment (field-independent basis, Debye-Ang):
   XX=             -0.6602   YY=              1.3203   ZZ=             -0.6602
   XY=             -0.0000   XZ=              0.0000   YZ=              0.0000
 Octapole moment (field-independent basis, Debye-Ang**2):
  XXX=              0.0000  YYY=              0.0000  ZZZ=              0.0000  XYY=              0.0000
  XXY=              0.0000  XXZ=              0.0000  XZZ=              0.0000  YZZ=              0.0000
  YYZ=              0.0000  XYZ=              0.0000
 Hexadecapole moment (field-independent basis, Debye-Ang**3):
 XXXX=             -8.7204 YYYY=             -4.8110 ZZZZ=             -8.7204 XXXY=             -0.0000
 XXXZ=              0.0000 YYYX=             -0.0000 YYYZ=              0.0000 ZZZX=              0.0000
 ZZZY=              0.0000 XXYY=             -2.2533 XXZZ=             -2.9068 YYZZ=             -2.2533
 XXYZ=              0.0000 YYXZ=              0.0000 ZZXY=             -0.0000
 N-N= 0.000000000000D+00 E-N=-8.814456122796D+01  KE= 3.769410548768D+01
 Symmetry AG   KE= 3.515980463490D+01
 Symmetry B1G  KE= 2.579944107082D-35
 Symmetry B2G  KE=-3.782217226444D-52
 Symmetry B3G  KE= 2.579944107082D-35
 Symmetry AU   KE= 5.414284390461D-38
 Symmetry B1U  KE= 1.267150426390D+00
 Symmetry B2U  KE= 4.751215548740D-33
 Symmetry B3U  KE= 1.267150426390D+00
 Symmetry AG   SP= 5.497392905479D-15
 Symmetry B1G  SP= 1.187935068285D-36
 Symmetry B2G  SP=-2.264514040103D-52
 Symmetry B3G  SP= 1.187935068285D-36
 Symmetry AU   SP= 1.581043770028D-38
 Symmetry B1U  SP= 1.000000000000D+00
 Symmetry B2U  SP= 3.749446887968D-33
 Symmetry B3U  SP= 1.000000000000D+00
 1\1\GINC-MIRAI146\SP\UCCSD-FC\def2TZVP\C1(3)\TAKAFUMI\01-Feb-2022\0\\#
  ccsd/def2tzvp\\C\\0,3\C,0,0.,0.,0.\\Version=ES64L-G16RevA.03\HF=-37.6
 924788\MP2=-37.7585891\MP3=-37.7735575\MP4D=-37.7784531\MP4DQ=-37.7769
 893\PUHF=-37.6947298\PMP2-0=-37.7599273\PMP3-0=-37.7742557\MP4SDQ=-37.
 7771927\CCSD=-37.7789993\S2=2.009981\S2-1=2.001886\S2A=2.\RMSD=2.698e-
 09\PG=OH [O(C1)]\\@


 UNLESS WE CHANGE DIRECTIONS, WE WILL WIND UP WHERE WE ARE HEADED.
     -- CONFUCIUS
 Job cpu time:       0 days  0 hours  0 minutes  8.2 seconds.
 Elapsed time:       0 days  0 hours  0 minutes  1.5 seconds.
 File lengths (MBytes):  RWF=     13 Int=      0 D2E=      0 Chk=      1 Scr=      1
 Normal termination of Gaussian 16 at Tue Feb  1 19:33:10 2022.
